 Entering Gaussian System, Link 0=g09
 Input=1.com
 Output=1.log
 Initial command:
 /home/student/g09/l1.exe /home/student/singh/octa/Gau-23503.inp -scrdir=/home/student/singh/octa/
 Entering Link 1 = /home/student/g09/l1.exe PID=     23505.
  
 Copyright (c) 1988,1990,1992,1993,1995,1998,2003,2009,2011,
            Gaussian, Inc.  All Rights Reserved.
  
 This is part of the Gaussian(R) 09 program.  It is based on
 the Gaussian(R) 03 system (copyright 2003, Gaussian, Inc.),
 the Gaussian(R) 98 system (copyright 1998, Gaussian, Inc.),
 the Gaussian(R) 94 system (copyright 1995, Gaussian, Inc.),
 the Gaussian 92(TM) system (copyright 1992, Gaussian, Inc.),
 the Gaussian 90(TM) system (copyright 1990, Gaussian, Inc.),
 the Gaussian 88(TM) system (copyright 1988, Gaussian, Inc.),
 the Gaussian 86(TM) system (copyright 1986, Carnegie Mellon
 University), and the Gaussian 82(TM) system (copyright 1983,
 Carnegie Mellon University). Gaussian is a federally registered
 trademark of Gaussian, Inc.
  
 This software contains proprietary and confidential information,
 including trade secrets, belonging to Gaussian, Inc.
  
 This software is provided under written license and may be
 used, copied, transmitted, or stored only in accord with that
 written license.
  
 The following legend is applicable only to US Government
 contracts under FAR:
  
                    RESTRICTED RIGHTS LEGEND
  
 Use, reproduction and disclosure by the US Government is
 subject to restrictions as set forth in subparagraphs (a)
 and (c) of the Commercial Computer Software - Restricted
 Rights clause in FAR 52.227-19.
  
 Gaussian, Inc.
 340 Quinnipiac St., Bldg. 40, Wallingford CT 06492
  
  
 ---------------------------------------------------------------
 Warning -- This program may not be used in any manner that
 competes with the business of Gaussian, Inc. or will provide
 assistance to any competitor of Gaussian, Inc.  The licensee
 of this program is prohibited from giving any competitor of
 Gaussian, Inc. access to this program.  By using this program,
 the user acknowledges that Gaussian, Inc. is engaged in the
 business of creating and licensing software in the field of
 computational chemistry and represents and warrants to the
 licensee that it is not a competitor of Gaussian, Inc. and that
 it will not use this program in any manner prohibited above.
 ---------------------------------------------------------------
  

 Cite this work as:
 Gaussian 09, Revision C.01,
 M. J. Frisch, G. W. Trucks, H. B. Schlegel, G. E. Scuseria, 
 M. A. Robb, J. R. Cheeseman, G. Scalmani, V. Barone, B. Mennucci, 
 G. A. Petersson, H. Nakatsuji, M. Caricato, X. Li, H. P. Hratchian, 
 A. F. Izmaylov, J. Bloino, G. Zheng, J. L. Sonnenberg, M. Hada, 
 M. Ehara, K. Toyota, R. Fukuda, J. Hasegawa, M. Ishida, T. Nakajima, 
 Y. Honda, O. Kitao, H. Nakai, T. Vreven, J. A. Montgomery, Jr., 
 J. E. Peralta, F. Ogliaro, M. Bearpark, J. J. Heyd, E. Brothers, 
 K. N. Kudin, V. N. Staroverov, T. Keith, R. Kobayashi, J. Normand, 
 K. Raghavachari, A. Rendell, J. C. Burant, S. S. Iyengar, J. Tomasi, 
 M. Cossi, N. Rega, J. M. Millam, M. Klene, J. E. Knox, J. B. Cross, 
 V. Bakken, C. Adamo, J. Jaramillo, R. Gomperts, R. E. Stratmann, 
 O. Yazyev, A. J. Austin, R. Cammi, C. Pomelli, J. W. Ochterski, 
 R. L. Martin, K. Morokuma, V. G. Zakrzewski, G. A. Voth, 
 P. Salvador, J. J. Dannenberg, S. Dapprich, A. D. Daniels, 
 O. Farkas, J. B. Foresman, J. V. Ortiz, J. Cioslowski, 
 and D. J. Fox, Gaussian, Inc., Wallingford CT, 2010.
 
 ******************************************
 Gaussian 09:  EM64L-G09RevC.01 23-Sep-2011
                 2-Mar-2021 
 ******************************************
 %chk=1.chk
 -----------------------------------------
 # opt freq b3lyp/6-31g* geom=connectivity
 -----------------------------------------
 1/14=-1,18=20,19=15,26=3,38=1,57=2/1,3;
 2/9=110,12=2,17=6,18=5,40=1/2;
 3/5=1,6=6,7=1,11=2,16=1,25=1,30=1,71=1,74=-5/1,2,3;
 4//1;
 5/5=2,38=5/2;
 6/7=2,8=2,9=2,10=2,28=1/1;
 7//1,2,3,16;
 1/14=-1,18=20,19=15/3(2);
 2/9=110/2;
 99//99;
 2/9=110/2;
 3/5=1,6=6,7=1,11=2,16=1,25=1,30=1,71=1,74=-5/1,2,3;
 4/5=5,16=3/1;
 5/5=2,38=5/2;
 7//1,2,3,16;
 1/14=-1,18=20,19=15/3(-5);
 2/9=110/2;
 6/7=2,8=2,9=2,10=2,19=2,28=1/1;
 99/9=1/99;
 -------------------
 Title Card Required
 -------------------
 Charge =  0 Multiplicity = 1
 Symbolic Z-Matrix:
 C                    -4.79467  -2.77713   0.09913 
 H                    -4.26151  -3.70483   0.09913 
 H                    -5.86467  -2.77713   0.09913 
 C                    -4.1194   -1.60215   0.09913 
 H                    -4.65256  -0.67445   0.09913 
 C                    -2.5794   -1.60215   0.09913 
 H                    -2.04624  -2.52986   0.09913 
 C                    -1.89716  -0.43121   0.09913 
 H                    -2.4248    0.49965   0.09913 
 C                    -0.35718  -0.44036   0.09913 
 H                     0.17046  -1.37121   0.09913 
 C                     0.33201   0.72651   0.09913 
 H                    -0.1901    1.66049   0.09913 
 C                     1.8719    0.70821   0.09913 
 H                     2.01958   1.76797   0.09913 
 C                     2.94243  -0.12277   0.09913 
 H                     2.80105  -1.18338   0.09913 
 H                     3.93245   0.28315   0.09913 
 

 GradGradGradGradGradGradGradGradGradGradGradGradGradGradGradGradGradGrad
 Berny optimization.
 Initialization pass.
                           ----------------------------
                           !    Initial Parameters    !
                           ! (Angstroms and Degrees)  !
 --------------------------                            --------------------------
 ! Name  Definition              Value          Derivative Info.                !
 --------------------------------------------------------------------------------
 ! R1    R(1,2)                  1.07           estimate D2E/DX2                !
 ! R2    R(1,3)                  1.07           estimate D2E/DX2                !
 ! R3    R(1,4)                  1.3552         estimate D2E/DX2                !
 ! R4    R(4,5)                  1.07           estimate D2E/DX2                !
 ! R5    R(4,6)                  1.54           estimate D2E/DX2                !
 ! R6    R(6,7)                  1.07           estimate D2E/DX2                !
 ! R7    R(6,8)                  1.3552         estimate D2E/DX2                !
 ! R8    R(8,9)                  1.07           estimate D2E/DX2                !
 ! R9    R(8,10)                 1.54           estimate D2E/DX2                !
 ! R10   R(10,11)                1.07           estimate D2E/DX2                !
 ! R11   R(10,12)                1.3552         estimate D2E/DX2                !
 ! R12   R(12,13)                1.07           estimate D2E/DX2                !
 ! R13   R(12,14)                1.54           estimate D2E/DX2                !
 ! R14   R(14,15)                1.07           estimate D2E/DX2                !
 ! R15   R(14,16)                1.3552         estimate D2E/DX2                !
 ! R16   R(16,17)                1.07           estimate D2E/DX2                !
 ! R17   R(16,18)                1.07           estimate D2E/DX2                !
 ! A1    A(2,1,3)              119.8865         estimate D2E/DX2                !
 ! A2    A(2,1,4)              120.2269         estimate D2E/DX2                !
 ! A3    A(3,1,4)              119.8865         estimate D2E/DX2                !
 ! A4    A(1,4,5)              120.2269         estimate D2E/DX2                !
 ! A5    A(1,4,6)              119.8865         estimate D2E/DX2                !
 ! A6    A(5,4,6)              119.8865         estimate D2E/DX2                !
 ! A7    A(4,6,7)              119.8865         estimate D2E/DX2                !
 ! A8    A(4,6,8)              120.2269         estimate D2E/DX2                !
 ! A9    A(7,6,8)              119.8865         estimate D2E/DX2                !
 ! A10   A(6,8,9)              120.2269         estimate D2E/DX2                !
 ! A11   A(6,8,10)             119.8865         estimate D2E/DX2                !
 ! A12   A(9,8,10)             119.8865         estimate D2E/DX2                !
 ! A13   A(8,10,11)            119.8865         estimate D2E/DX2                !
 ! A14   A(8,10,12)            120.2269         estimate D2E/DX2                !
 ! A15   A(11,10,12)           119.8865         estimate D2E/DX2                !
 ! A16   A(10,12,13)           120.2269         estimate D2E/DX2                !
 ! A17   A(10,12,14)           119.8865         estimate D2E/DX2                !
 ! A18   A(13,12,14)           119.8865         estimate D2E/DX2                !
 ! A19   A(12,14,15)            97.2523         estimate D2E/DX2                !
 ! A20   A(12,14,16)           142.8611         estimate D2E/DX2                !
 ! A21   A(15,14,16)           119.8865         estimate D2E/DX2                !
 ! A22   A(14,16,17)           120.2269         estimate D2E/DX2                !
 ! A23   A(14,16,18)           119.8865         estimate D2E/DX2                !
 ! A24   A(17,16,18)           119.8865         estimate D2E/DX2                !
 ! D1    D(2,1,4,5)            180.0            estimate D2E/DX2                !
 ! D2    D(2,1,4,6)              0.0            estimate D2E/DX2                !
 ! D3    D(3,1,4,5)              0.0            estimate D2E/DX2                !
 ! D4    D(3,1,4,6)            180.0            estimate D2E/DX2                !
 ! D5    D(1,4,6,7)              0.0            estimate D2E/DX2                !
 ! D6    D(1,4,6,8)            180.0            estimate D2E/DX2                !
 ! D7    D(5,4,6,7)            180.0            estimate D2E/DX2                !
 ! D8    D(5,4,6,8)              0.0            estimate D2E/DX2                !
 ! D9    D(4,6,8,9)              0.0            estimate D2E/DX2                !
 ! D10   D(4,6,8,10)           180.0            estimate D2E/DX2                !
 ! D11   D(7,6,8,9)            180.0            estimate D2E/DX2                !
 ! D12   D(7,6,8,10)             0.0            estimate D2E/DX2                !
 ! D13   D(6,8,10,11)            0.0            estimate D2E/DX2                !
 ! D14   D(6,8,10,12)          180.0            estimate D2E/DX2                !
 ! D15   D(9,8,10,11)          180.0            estimate D2E/DX2                !
 ! D16   D(9,8,10,12)            0.0            estimate D2E/DX2                !
 ! D17   D(8,10,12,13)           0.0            estimate D2E/DX2                !
 ! D18   D(8,10,12,14)         180.0            estimate D2E/DX2                !
 ! D19   D(11,10,12,13)        180.0            estimate D2E/DX2                !
 ! D20   D(11,10,12,14)          0.0            estimate D2E/DX2                !
 ! D21   D(10,12,14,15)        180.0            estimate D2E/DX2                !
 ! D22   D(10,12,14,16)          0.0            estimate D2E/DX2                !
 ! D23   D(13,12,14,15)          0.0            estimate D2E/DX2                !
 ! D24   D(13,12,14,16)        180.0            estimate D2E/DX2                !
 ! D25   D(12,14,16,17)          0.0            estimate D2E/DX2                !
 ! D26   D(12,14,16,18)       -180.0            estimate D2E/DX2                !
 ! D27   D(15,14,16,17)        180.0            estimate D2E/DX2                !
 ! D28   D(15,14,16,18)          0.0            estimate D2E/DX2                !
 --------------------------------------------------------------------------------
 Trust Radius=3.00D-01 FncErr=1.00D-07 GrdErr=1.00D-06
 Number of steps in this run=     79 maximum allowed number of steps=    108.
 GradGradGradGradGradGradGradGradGradGradGradGradGradGradGradGradGradGrad

                          Input orientation:                          
 ---------------------------------------------------------------------
 Center     Atomic      Atomic             Coordinates (Angstroms)
 Number     Number       Type             X           Y           Z
 ---------------------------------------------------------------------
      1          6           0       -4.794673   -2.777129    0.099126
      2          1           0       -4.261510   -3.704834    0.099126
      3          1           0       -5.864673   -2.777129    0.099126
      4          6           0       -4.119399   -1.602152    0.099126
      5          1           0       -4.652563   -0.674447    0.099126
      6          6           0       -2.579399   -1.602152    0.099126
      7          1           0       -2.046235   -2.529857    0.099126
      8          6           0       -1.897156   -0.431207    0.099126
      9          1           0       -2.424798    0.499649    0.099126
     10          6           0       -0.357183   -0.440357    0.099126
     11          1           0        0.170460   -1.371213    0.099126
     12          6           0        0.332006    0.726513    0.099126
     13          1           0       -0.190097    1.660488    0.099126
     14          6           0        1.871897    0.708214    0.099126
     15          1           0        2.019576    1.767974    0.099126
     16          6           0        2.942430   -0.122766    0.099126
     17          1           0        2.801049   -1.183384    0.099126
     18          1           0        3.932448    0.283145    0.099126
 ---------------------------------------------------------------------
                    Distance matrix (angstroms):
                    1          2          3          4          5
     1  C    0.000000
     2  H    1.070000   0.000000
     3  H    1.070000   1.852234   0.000000
     4  C    1.355200   2.107479   2.103938   0.000000
     5  H    2.107479   3.055514   2.427032   1.070000   0.000000
     6  C    2.507591   2.692725   3.489068   1.540000   2.271265
     7  H    2.759539   2.507591   3.826436   2.271265   3.199295
     8  C    3.728131   4.038168   4.609181   2.511867   2.766123
     9  H    4.043956   4.588157   4.750791   2.699859   2.518221
    10  C    5.015160   5.089261   5.982721   3.937517   4.301754
    11  H    5.160343   5.008806   6.196727   4.296070   4.873092
    12  C    6.209537   6.382572   7.118591   5.023712   5.177703
    13  H    6.394886   6.735212   7.203698   5.107273   5.036420
    14  C    7.522684   7.556035   8.485407   6.421325   6.669357
    15  H    8.190968   8.330886   9.100514   7.003197   7.105129
    16  C    8.179756   8.045368   9.198408   7.215123   7.615002
    17  H    7.761123   7.499163   8.811060   6.933107   7.470967
    18  H    9.248131   9.112898  10.263959   8.269618   8.638252
                    6          7          8          9         10
     6  C    0.000000
     7  H    1.070000   0.000000
     8  C    1.355200   2.103938   0.000000
     9  H    2.107479   3.053066   1.070000   0.000000
    10  C    2.507591   2.686802   1.540000   2.271265   0.000000
    11  H    2.759539   2.501238   2.271265   3.199295   1.070000
    12  C    3.728131   4.032366   2.511867   2.766123   1.355200
    13  H    4.043956   4.583038   2.699859   2.518221   2.107479
    14  C    5.015160   5.082997   3.937517   4.301754   2.507591
    15  H    5.701607   5.916263   4.491902   4.621808   3.244335
    16  C    5.716570   5.539031   4.849404   5.403196   3.314861
    17  H    5.396720   5.030821   4.758035   5.490181   3.244460
    18  H    6.779269   6.607392   5.873208   6.360932   4.350217
                   11         12         13         14         15
    11  H    0.000000
    12  C    2.103938   0.000000
    13  H    3.053066   1.070000   0.000000
    14  C    2.686802   1.540000   2.271265   0.000000
    15  H    3.643313   1.983062   2.212286   1.070000   0.000000
    16  C    3.040138   2.745102   3.604541   1.355200   2.103938
    17  H    2.637287   3.121520   4.127295   2.107479   3.053066
    18  H    4.109678   3.627638   4.346545   2.103938   2.421527
                   16         17         18
    16  C    0.000000
    17  H    1.070000   0.000000
    18  H    1.070000   1.852234   0.000000
 Stoichiometry    C8H10
 Framework group  CS[SG(C8H10)]
 Deg. of freedom    33
 Full point group                 CS      NOp   2
 Largest Abelian subgroup         CS      NOp   2
 Largest concise Abelian subgroup C1      NOp   1
                         Standard orientation:                         
 ---------------------------------------------------------------------
 Center     Atomic      Atomic             Coordinates (Angstroms)
 Number     Number       Type             X           Y           Z
 ---------------------------------------------------------------------
      1          6           0        0.105255    4.256752    0.000000
      2          1           0        1.174404    4.214080    0.000000
      3          1           0       -0.390488    5.204981    0.000000
      4          6           0       -0.623143    3.113946    0.000000
      5          1           0       -1.692291    3.156618    0.000000
      6          6           0        0.090357    1.749205    0.000000
      7          1           0        1.159505    1.706534    0.000000
      8          6           0       -0.631238    0.602092    0.000000
      9          1           0       -1.700622    0.638411    0.000000
     10          6           0        0.090357   -0.758386    0.000000
     11          1           0        1.159740   -0.794704    0.000000
     12          6           0       -0.624410   -1.909766    0.000000
     13          1           0       -1.693991   -1.879802    0.000000
     14          6           0        0.105255   -3.265932    0.000000
     15          1           0       -0.765478   -3.887804    0.000000
     16          6           0        1.337655   -3.829632    0.000000
     17          1           0        2.212068   -3.212945    0.000000
     18          1           0        1.436626   -4.895045    0.000000
 ---------------------------------------------------------------------
 Rotational constants (GHZ):     10.5552046      0.5939966      0.5623502
 Standard basis: 6-31G(d) (6D, 7F)
 There are   108 symmetry adapted basis functions of A'  symmetry.
 There are    32 symmetry adapted basis functions of A"  symmetry.
 Integral buffers will be    131072 words long.
 Raffenetti 2 integral format.
 Two-electron integral symmetry is turned on.
   140 basis functions,   264 primitive gaussians,   140 cartesian basis functions
    29 alpha electrons       29 beta electrons
       nuclear repulsion energy       293.9999814104 Hartrees.
 NAtoms=   18 NActive=   18 NUniq=   18 SFac= 1.00D+00 NAtFMM=   60 NAOKFM=F Big=F
 One-electron integrals computed using PRISM.
 NBasis=   140 RedAO= T  NBF=   108    32
 NBsUse=   140 1.00D-06 NBFU=   108    32
 Harris functional with IExCor=  402 diagonalized for initial guess.
 ExpMin= 1.61D-01 ExpMax= 3.05D+03 ExpMxC= 4.57D+02 IAcc=1 IRadAn=         1 AccDes= 0.00D+00
 HarFok:  IExCor=  402 AccDes= 0.00D+00 IRadAn=         1 IDoV= 1
 ScaDFX=  1.000000  1.000000  1.000000  1.000000
 FoFCou: FMM=F IPFlag=           0 FMFlag=      100000 FMFlg1=           0
         NFxFlg=           0 DoJE=T BraDBF=F KetDBF=T FulRan=T
         Omega=  0.000000  0.000000  1.000000  0.000000  0.000000 ICntrl=     500 IOpCl=  0
         NMat0=    1 NMatS0=    1 NMatT0=    0 NMatD0=    1 NMtDS0=    0 NMtDT0=    0
         I1Cent=           4 NGrid=           0.
 Petite list used in FoFCou.
 Initial guess orbital symmetries:
       Occupied  (A') (A') (A') (A') (A') (A') (A') (A') (A') (A')
                 (A') (A') (A') (A') (A') (A') (A') (A') (A') (A')
                 (A') (A') (A') (A') (A') (A") (A") (A") (A")
       Virtual   (A") (A") (A") (A") (A') (A') (A') (A') (A') (A')
                 (A') (A') (A') (A') (A') (A') (A') (A') (A') (A')
                 (A') (A') (A') (A") (A') (A") (A') (A") (A') (A')
                 (A") (A") (A') (A') (A') (A") (A') (A") (A") (A')
                 (A') (A') (A') (A') (A') (A') (A') (A') (A') (A')
                 (A') (A') (A') (A') (A') (A') (A') (A') (A') (A")
                 (A') (A") (A") (A') (A") (A') (A') (A") (A") (A")
                 (A") (A") (A') (A') (A') (A') (A') (A") (A') (A')
                 (A') (A") (A') (A') (A") (A') (A') (A') (A') (A")
                 (A") (A') (A") (A') (A") (A') (A') (A') (A') (A')
                 (A') (A') (A') (A') (A') (A') (A') (A') (A') (A')
                 (A')
 The electronic state of the initial guess is 1-A'.
 Requested convergence on RMS density matrix=1.00D-08 within 128 cycles.
 Requested convergence on MAX density matrix=1.00D-06.
 Requested convergence on             energy=1.00D-06.
 No special actions if energy rises.
 Integral accuracy reduced to 1.0D-05 until final iterations.
 Initial convergence to 1.0D-05 achieved.  Increase integral accuracy.
 SCF Done:  E(RB3LYP) =  -310.766274637     A.U. after   14 cycles
             Convg  =    0.3317D-08             -V/T =  2.0109

 **********************************************************************

            Population analysis using the SCF density.

 **********************************************************************

 Orbital symmetries:
       Occupied  (A') (A') (A') (A') (A') (A') (A') (A') (A') (A')
                 (A') (A') (A') (A') (A') (A') (A') (A') (A') (A')
                 (A') (A') (A') (A') (A") (A') (A") (A") (A")
       Virtual   (A") (A") (A") (A") (A') (A') (A') (A') (A') (A')
                 (A') (A') (A') (A') (A') (A') (A') (A') (A') (A')
                 (A') (A') (A') (A") (A') (A") (A") (A') (A') (A")
                 (A') (A") (A') (A") (A') (A') (A') (A") (A") (A')
                 (A') (A') (A') (A') (A') (A') (A') (A') (A') (A')
                 (A') (A') (A') (A') (A') (A') (A') (A') (A') (A')
                 (A') (A") (A") (A") (A') (A") (A') (A") (A") (A")
                 (A") (A") (A') (A') (A') (A') (A') (A") (A') (A')
                 (A') (A") (A') (A') (A") (A') (A') (A') (A') (A")
                 (A") (A') (A") (A') (A") (A') (A') (A') (A') (A')
                 (A') (A') (A') (A') (A') (A') (A') (A') (A') (A')
                 (A')
 The electronic state is 1-A'.
 Alpha  occ. eigenvalues --  -10.19979 -10.19883 -10.19867 -10.19781 -10.19647
 Alpha  occ. eigenvalues --  -10.19329 -10.18253 -10.18229  -0.81041  -0.78457
 Alpha  occ. eigenvalues --   -0.74809  -0.71048  -0.62475  -0.57837  -0.56561
 Alpha  occ. eigenvalues --   -0.53373  -0.47427  -0.46932  -0.43783  -0.43150
 Alpha  occ. eigenvalues --   -0.40282  -0.39081  -0.37615  -0.35537  -0.33320
 Alpha  occ. eigenvalues --   -0.31515  -0.30140  -0.25551  -0.20434
 Alpha virt. eigenvalues --   -0.05141   0.01122   0.06940   0.09776   0.10025
 Alpha virt. eigenvalues --    0.10459   0.12732   0.12946   0.14524   0.16329
 Alpha virt. eigenvalues --    0.17851   0.18512   0.19305   0.21126   0.27167
 Alpha virt. eigenvalues --    0.30168   0.32326   0.33832   0.36090   0.38019
 Alpha virt. eigenvalues --    0.40233   0.47534   0.50465   0.52358   0.53863
 Alpha virt. eigenvalues --    0.54207   0.57505   0.57960   0.60248   0.60757
 Alpha virt. eigenvalues --    0.60782   0.61858   0.64131   0.66713   0.67075
 Alpha virt. eigenvalues --    0.67410   0.68637   0.70332   0.73126   0.83131
 Alpha virt. eigenvalues --    0.85414   0.86082   0.87130   0.87759   0.88385
 Alpha virt. eigenvalues --    0.89485   0.90831   0.91093   0.93409   0.95305
 Alpha virt. eigenvalues --    0.97530   1.01611   1.03579   1.06035   1.08502
 Alpha virt. eigenvalues --    1.09928   1.12967   1.18974   1.25153   1.28947
 Alpha virt. eigenvalues --    1.33367   1.33393   1.34570   1.36795   1.41962
 Alpha virt. eigenvalues --    1.45156   1.46072   1.51852   1.52852   1.61450
 Alpha virt. eigenvalues --    1.70721   1.72900   1.74835   1.77058   1.77567
 Alpha virt. eigenvalues --    1.91531   1.93983   1.95920   2.00138   2.01851
 Alpha virt. eigenvalues --    2.04278   2.05690   2.12464   2.14579   2.16204
 Alpha virt. eigenvalues --    2.20452   2.24409   2.27454   2.30409   2.33723
 Alpha virt. eigenvalues --    2.40219   2.41095   2.41600   2.45636   2.51729
 Alpha virt. eigenvalues --    2.58088   2.68293   2.75973   2.81700   2.84501
 Alpha virt. eigenvalues --    2.92460   2.98994   3.08538   4.04139   4.06044
 Alpha virt. eigenvalues --    4.09785   4.16425   4.18766   4.31935   4.44418
 Alpha virt. eigenvalues --    4.53541
          Condensed to atoms (all electrons):
              1          2          3          4          5          6
     1  C    5.055239   0.372838   0.365555   0.628836  -0.051408  -0.026523
     2  H    0.372838   0.559598  -0.040232  -0.036128   0.005685  -0.011350
     3  H    0.365555  -0.040232   0.557841  -0.024331  -0.006534   0.003891
     4  C    0.628836  -0.036128  -0.024331   4.798679   0.369039   0.408549
     5  H   -0.051408   0.005685  -0.006534   0.369039   0.590082  -0.044639
     6  C   -0.026523  -0.011350   0.003891   0.408549  -0.044639   4.907107
     7  H   -0.003434   0.004373  -0.000012  -0.043413   0.003674   0.365529
     8  C    0.001940   0.000457  -0.000168  -0.017798  -0.003772   0.594777
     9  H    0.000365   0.000014  -0.000006  -0.007921   0.003895  -0.052834
    10  C   -0.000179  -0.000003   0.000002   0.003221   0.000132  -0.015379
    11  H   -0.000002   0.000002   0.000000   0.000115   0.000005  -0.003157
    12  C    0.000003   0.000000   0.000000  -0.000179  -0.000004   0.001477
    13  H    0.000000   0.000000   0.000000  -0.000003   0.000001   0.000343
    14  C    0.000000   0.000000   0.000000   0.000001   0.000000  -0.000181
    15  H    0.000000   0.000000   0.000000   0.000000   0.000000   0.000004
    16  C    0.000000   0.000000   0.000000   0.000000   0.000000   0.000000
    17  H    0.000000   0.000000   0.000000   0.000000   0.000000   0.000002
    18  H    0.000000   0.000000   0.000000   0.000000   0.000000   0.000000
              7          8          9         10         11         12
     1  C   -0.003434   0.001940   0.000365  -0.000179  -0.000002   0.000003
     2  H    0.004373   0.000457   0.000014  -0.000003   0.000002   0.000000
     3  H   -0.000012  -0.000168  -0.000006   0.000002   0.000000   0.000000
     4  C   -0.043413  -0.017798  -0.007921   0.003221   0.000115  -0.000179
     5  H    0.003674  -0.003772   0.003895   0.000132   0.000005  -0.000004
     6  C    0.365529   0.594777  -0.052834  -0.015379  -0.003157   0.001477
     7  H    0.589830  -0.051777   0.005935  -0.008264   0.003876   0.000457
     8  C   -0.051777   4.918407   0.366916   0.389822  -0.045626  -0.017089
     9  H    0.005935   0.366916   0.591744  -0.044559   0.003542  -0.003137
    10  C   -0.008264   0.389822  -0.044559   4.883222   0.368361   0.603698
    11  H    0.003876  -0.045626   0.003542   0.368361   0.587002  -0.050794
    12  C    0.000457  -0.017089  -0.003137   0.603698  -0.050794   4.965332
    13  H    0.000014  -0.008221   0.003896  -0.054599   0.005744   0.364553
    14  C   -0.000004   0.004160   0.000113  -0.028194  -0.010092   0.400283
    15  H    0.000000  -0.000311   0.000000   0.007593   0.000363  -0.057558
    16  C    0.000000   0.000145   0.000001  -0.012551   0.002437  -0.037325
    17  H    0.000001  -0.000058   0.000001   0.002729   0.002305  -0.006789
    18  H    0.000000   0.000001   0.000000  -0.000059  -0.000067   0.003651
             13         14         15         16         17         18
     1  C    0.000000   0.000000   0.000000   0.000000   0.000000   0.000000
     2  H    0.000000   0.000000   0.000000   0.000000   0.000000   0.000000
     3  H    0.000000   0.000000   0.000000   0.000000   0.000000   0.000000
     4  C   -0.000003   0.000001   0.000000   0.000000   0.000000   0.000000
     5  H    0.000001   0.000000   0.000000   0.000000   0.000000   0.000000
     6  C    0.000343  -0.000181   0.000004   0.000000   0.000002   0.000000
     7  H    0.000014  -0.000004   0.000000   0.000000   0.000001   0.000000
     8  C   -0.008221   0.004160  -0.000311   0.000145  -0.000058   0.000001
     9  H    0.003896   0.000113   0.000000   0.000001   0.000001   0.000000
    10  C   -0.054599  -0.028194   0.007593  -0.012551   0.002729  -0.000059
    11  H    0.005744  -0.010092   0.000363   0.002437   0.002305  -0.000067
    12  C    0.364553   0.400283  -0.057558  -0.037325  -0.006789   0.003651
    13  H    0.584991  -0.033543  -0.007334   0.003962  -0.000077  -0.000077
    14  C   -0.033543   4.779543   0.350534   0.657229  -0.032361  -0.017742
    15  H   -0.007334   0.350534   0.654887  -0.057876   0.006793  -0.010529
    16  C    0.003962   0.657229  -0.057876   5.068205   0.360983   0.370871
    17  H   -0.000077  -0.032361   0.006793   0.360983   0.571186  -0.042635
    18  H   -0.000077  -0.017742  -0.010529   0.370871  -0.042635   0.543380
 Mulliken atomic charges:
              1
     1  C   -0.343230
     2  H    0.144747
     3  H    0.143995
     4  C   -0.078669
     5  H    0.133844
     6  C   -0.127616
     7  H    0.133212
     8  C   -0.131809
     9  H    0.132034
    10  C   -0.094993
    11  H    0.135985
    12  C   -0.166581
    13  H    0.140350
    14  C   -0.069748
    15  H    0.113433
    16  C   -0.356082
    17  H    0.137921
    18  H    0.153206
 Sum of Mulliken atomic charges =   0.00000
 Mulliken charges with hydrogens summed into heavy atoms:
              1
     1  C   -0.054489
     4  C    0.055175
     6  C    0.005597
     8  C    0.000225
    10  C    0.040993
    12  C   -0.026231
    14  C    0.043685
    16  C   -0.064955
 Sum of Mulliken charges with hydrogens summed into heavy atoms =   0.00000
 Electronic spatial extent (au):  <R**2>=           1944.7600
 Charge=              0.0000 electrons
 Dipole moment (field-independent basis, Debye):
    X=             -0.2698    Y=              0.4438    Z=              0.0000  Tot=              0.5194
 Quadrupole moment (field-independent basis, Debye-Ang):
   XX=            -42.8117   YY=            -45.9133   ZZ=            -53.9836
   XY=              0.1587   XZ=              0.0000   YZ=              0.0000
 Traceless Quadrupole moment (field-independent basis, Debye-Ang):
   XX=              4.7578   YY=              1.6562   ZZ=             -6.4140
   XY=              0.1587   XZ=              0.0000   YZ=              0.0000
 Octapole moment (field-independent basis, Debye-Ang**2):
  XXX=             -1.8533  YYY=              5.3140  ZZZ=              0.0000  XYY=             -1.8702
  XXY=              1.3160  XXZ=              0.0000  XZZ=             -0.3289  YZZ=              0.2578
  YYZ=              0.0000  XYZ=              0.0000
 Hexadecapole moment (field-independent basis, Debye-Ang**3):
 XXXX=           -210.8278 YYYY=          -2241.5080 ZZZZ=            -56.3653 XXXY=            111.3637
 XXXZ=              0.0000 YYYX=             88.5423 YYYZ=              0.0000 ZZZX=              0.0000
 ZZZY=              0.0000 XXYY=           -404.1478 XXZZ=            -50.6831 YYZZ=           -461.7933
 XXYZ=              0.0000 YYXZ=              0.0000 ZZXY=             44.4795
 N-N= 2.939999814104D+02 E-N=-1.306303224344D+03  KE= 3.074239732622D+02
 Symmetry A'   KE= 2.990087702194D+02
 Symmetry A"   KE= 8.415203042801D+00
 Calling FoFJK, ICntrl=      2127 FMM=F ISym2X=1 I1Cent= 0 IOpClX= 0 NMat=1 NMatS=1 NMatT=0.
 ***** Axes restored to original set *****
 -------------------------------------------------------------------
 Center     Atomic                   Forces (Hartrees/Bohr)
 Number     Number              X              Y              Z
 -------------------------------------------------------------------
      1        6           0.010791546    0.030754808    0.000000000
      2        1           0.002441837   -0.011862229    0.000000000
      3        1          -0.011535375   -0.004666051    0.000000000
      4        6           0.044489914   -0.042859671    0.000000000
      5        1          -0.001432917    0.013060467    0.000000000
      6        6          -0.052120186    0.037016630    0.000000000
      7        1           0.001315357   -0.013011982    0.000000000
      8        6           0.054221863   -0.037539433    0.000000000
      9        1          -0.001701431    0.012848676    0.000000000
     10        6          -0.059791216    0.037887117    0.000000000
     11        1           0.001278601   -0.012724348    0.000000000
     12        6           0.044052533   -0.066713624    0.000000000
     13        1           0.001361272    0.012425377    0.000000000
     14        6          -0.032507257    0.031279104    0.000000000
     15        1           0.028064447    0.015255221    0.000000000
     16        6          -0.042297199    0.010182090    0.000000000
     17        1           0.003867356   -0.013608726    0.000000000
     18        1           0.009500856    0.002276574    0.000000000
 -------------------------------------------------------------------
 Cartesian Forces:  Max     0.066713624 RMS     0.023995780

 GradGradGradGradGradGradGradGradGradGradGradGradGradGradGradGradGradGrad
 Berny optimization.
 Internal  Forces:  Max     0.047762914 RMS     0.014112504
 Search for a local minimum.
 Step number   1 out of a maximum of   79
 All quantities printed in internal units (Hartrees-Bohrs-Radians)
 Mixed Optimization -- RFO/linear search
 Second derivative matrix not updated -- first step.
 ITU=  0
     Eigenvalues ---    0.00237   0.00237   0.00237   0.01459   0.01459
     Eigenvalues ---    0.01463   0.01463   0.01463   0.01623   0.02681
     Eigenvalues ---    0.02681   0.02681   0.02681   0.02681   0.02681
     Eigenvalues ---    0.16000   0.16000   0.16000   0.16000   0.16000
     Eigenvalues ---    0.16000   0.16000   0.16000   0.16000   0.16000
     Eigenvalues ---    0.22000   0.22000   0.22000   0.22000   0.22000
     Eigenvalues ---    0.22000   0.28519   0.28519   0.28519   0.37230
     Eigenvalues ---    0.37230   0.37230   0.37230   0.37230   0.37230
     Eigenvalues ---    0.37230   0.37230   0.37230   0.37230   0.53930
     Eigenvalues ---    0.53930   0.53930   0.53930
 RFO step:  Lambda=-4.61296105D-02 EMin= 2.36824057D-03
 Linear search not attempted -- first point.
 Maximum step size (   0.300) exceeded in Quadratic search.
    -- Step size scaled by   0.742
 Iteration  1 RMS(Cart)=  0.07119073 RMS(Int)=  0.00206525
 Iteration  2 RMS(Cart)=  0.00328143 RMS(Int)=  0.00000324
 Iteration  3 RMS(Cart)=  0.00000424 RMS(Int)=  0.00000000
 Iteration  4 RMS(Cart)=  0.00000000 RMS(Int)=  0.00000000
 ClnCor:  largest displacement from symmetrization is 1.56D-12 for atom     2.
 Variable       Old X    -DE/DX   Delta X   Delta X   Delta X     New X
                                 (Linear)    (Quad)   (Total)
    R1        2.02201   0.01150   0.00000   0.02039   0.02039   2.04240
    R2        2.02201   0.01154   0.00000   0.02045   0.02045   2.04246
    R3        2.56096  -0.01318   0.00000  -0.01671  -0.01671   2.54425
    R4        2.02201   0.01204   0.00000   0.02135   0.02135   2.04335
    R5        2.91018  -0.04475   0.00000  -0.10022  -0.10022   2.80995
    R6        2.02201   0.01194   0.00000   0.02117   0.02117   2.04317
    R7        2.56096  -0.00424   0.00000  -0.00537  -0.00537   2.55558
    R8        2.02201   0.01202   0.00000   0.02131   0.02131   2.04332
    R9        2.91018  -0.04657   0.00000  -0.10428  -0.10428   2.80590
   R10        2.02201   0.01170   0.00000   0.02075   0.02075   2.04275
   R11        2.56096  -0.00154   0.00000  -0.00196  -0.00196   2.55900
   R12        2.02201   0.01018   0.00000   0.01805   0.01805   2.04006
   R13        2.91018  -0.03391   0.00000  -0.07594  -0.07594   2.83424
   R14        2.02201   0.01898   0.00000   0.03366   0.03366   2.05567
   R15        2.56096  -0.02215   0.00000  -0.02807  -0.02807   2.53289
   R16        2.02201   0.01298   0.00000   0.02301   0.02301   2.04502
   R17        2.02201   0.00965   0.00000   0.01712   0.01712   2.03913
    A1        2.09241  -0.00570   0.00000  -0.02052  -0.02052   2.07189
    A2        2.09836   0.00197   0.00000   0.00709   0.00709   2.10544
    A3        2.09241   0.00373   0.00000   0.01344   0.01344   2.10585
    A4        2.09836  -0.00066   0.00000   0.00249   0.00249   2.10084
    A5        2.09241   0.01196   0.00000   0.03335   0.03335   2.12577
    A6        2.09241  -0.01130   0.00000  -0.03584  -0.03584   2.05658
    A7        2.09241  -0.01095   0.00000  -0.03492  -0.03492   2.05750
    A8        2.09836   0.01110   0.00000   0.03094   0.03094   2.12930
    A9        2.09241  -0.00015   0.00000   0.00397   0.00397   2.09639
   A10        2.09836  -0.00106   0.00000   0.00102   0.00102   2.09937
   A11        2.09241   0.01195   0.00000   0.03331   0.03331   2.12572
   A12        2.09241  -0.01088   0.00000  -0.03432  -0.03432   2.05809
   A13        2.09241  -0.01137   0.00000  -0.03594  -0.03594   2.05647
   A14        2.09836   0.01231   0.00000   0.03431   0.03431   2.13267
   A15        2.09241  -0.00093   0.00000   0.00163   0.00163   2.09404
   A16        2.09836  -0.00342   0.00000  -0.00357  -0.00357   2.09478
   A17        2.09241   0.02149   0.00000   0.05992   0.05992   2.15233
   A18        2.09241  -0.01808   0.00000  -0.05635  -0.05635   2.03607
   A19        1.69737   0.04776   0.00000   0.15424   0.15424   1.85161
   A20        2.49340  -0.04358   0.00000  -0.12150  -0.12150   2.37190
   A21        2.09241  -0.00418   0.00000  -0.03274  -0.03274   2.05967
   A22        2.09836   0.00658   0.00000   0.02369   0.02369   2.12205
   A23        2.09241  -0.00178   0.00000  -0.00639  -0.00639   2.08602
   A24        2.09241  -0.00481   0.00000  -0.01730  -0.01730   2.07512
    D1        3.14159   0.00000   0.00000   0.00000   0.00000   3.14159
    D2        0.00000   0.00000   0.00000   0.00000   0.00000   0.00000
    D3        0.00000   0.00000   0.00000   0.00000   0.00000   0.00000
    D4        3.14159   0.00000   0.00000   0.00000   0.00000   3.14159
    D5        0.00000   0.00000   0.00000   0.00000   0.00000   0.00000
    D6        3.14159   0.00000   0.00000   0.00000   0.00000   3.14159
    D7        3.14159   0.00000   0.00000   0.00000   0.00000   3.14159
    D8        0.00000   0.00000   0.00000   0.00000   0.00000   0.00000
    D9        0.00000   0.00000   0.00000   0.00000   0.00000   0.00000
   D10        3.14159   0.00000   0.00000   0.00000   0.00000   3.14159
   D11        3.14159   0.00000   0.00000   0.00000   0.00000   3.14159
   D12        0.00000   0.00000   0.00000   0.00000   0.00000   0.00000
   D13        0.00000   0.00000   0.00000   0.00000   0.00000   0.00000
   D14        3.14159   0.00000   0.00000   0.00000   0.00000   3.14159
   D15        3.14159   0.00000   0.00000   0.00000   0.00000   3.14159
   D16        0.00000   0.00000   0.00000   0.00000   0.00000   0.00000
   D17        0.00000   0.00000   0.00000   0.00000   0.00000   0.00000
   D18        3.14159   0.00000   0.00000   0.00000   0.00000   3.14159
   D19        3.14159   0.00000   0.00000   0.00000   0.00000   3.14159
   D20        0.00000   0.00000   0.00000   0.00000   0.00000   0.00000
   D21        3.14159   0.00000   0.00000   0.00000   0.00000   3.14159
   D22        0.00000   0.00000   0.00000   0.00000   0.00000   0.00000
   D23        0.00000   0.00000   0.00000   0.00000   0.00000   0.00000
   D24        3.14159   0.00000   0.00000   0.00000   0.00000   3.14159
   D25        0.00000   0.00000   0.00000   0.00000   0.00000   0.00000
   D26        3.14159   0.00000   0.00000   0.00000   0.00000   3.14159
   D27        3.14159   0.00000   0.00000   0.00000   0.00000   3.14159
   D28        0.00000   0.00000   0.00000   0.00000   0.00000   0.00000
         Item               Value     Threshold  Converged?
 Maximum Force            0.047763     0.000450     NO 
 RMS     Force            0.014113     0.000300     NO 
 Maximum Displacement     0.343947     0.001800     NO 
 RMS     Displacement     0.072602     0.001200     NO 
 Predicted change in Energy=-2.360485D-02
 GradGradGradGradGradGradGradGradGradGradGradGradGradGradGradGradGradGrad

                          Input orientation:                          
 ---------------------------------------------------------------------
 Center     Atomic      Atomic             Coordinates (Angstroms)
 Number     Number       Type             X           Y           Z
 ---------------------------------------------------------------------
      1          6           0       -4.743728   -2.771451    0.099126
      2          1           0       -4.230885   -3.722820    0.099126
      3          1           0       -5.824527   -2.764219    0.099126
      4          6           0       -4.049500   -1.617876    0.099126
      5          1           0       -4.566957   -0.668435    0.099126
      6          6           0       -2.562667   -1.598214    0.099126
      7          1           0       -2.044383   -2.547095    0.099126
      8          6           0       -1.861257   -0.441974    0.099126
      9          1           0       -2.376741    0.508517    0.099126
     10          6           0       -0.376509   -0.427652    0.099126
     11          1           0        0.137296   -1.378714    0.099126
     12          6           0        0.333866    0.725228    0.099126
     13          1           0       -0.178558    1.675416    0.099126
     14          6           0        1.833039    0.769182    0.099126
     15          1           0        2.103754    1.822770    0.099126
     16          6           0        2.822497   -0.134977    0.099126
     17          1           0        2.619040   -1.197857    0.099126
     18          1           0        3.848399    0.199528    0.099126
 ---------------------------------------------------------------------
                    Distance matrix (angstroms):
                    1          2          3          4          5
     1  C    0.000000
     2  H    1.080792   0.000000
     3  H    1.080824   1.859735   0.000000
     4  C    1.346360   2.112744   2.113013   0.000000
     5  H    2.110432   3.072818   2.444135   1.081295   0.000000
     6  C    2.476593   2.701278   3.464001   1.486963   2.209449
     7  H    2.708653   2.482563   3.786375   2.209965   3.145273
     8  C    3.706090   4.047109   4.593511   2.484182   2.715161
     9  H    4.044851   4.619748   4.753739   2.705490   2.486416
    10  C    4.956410   5.070932   5.927938   3.861024   4.197360
    11  H    5.075835   4.957401   6.120699   4.193621   4.757571
    12  C    6.165121   6.373545   7.078280   4.970316   5.095131
    13  H    6.373021   6.749985   7.182432   5.082319   4.975106
    14  C    7.469266   7.546473   8.433460   6.348411   6.559473
    15  H    8.245900   8.419098   9.159591   7.049864   7.120708
    16  C    8.012412   7.913458   9.037917   7.030173   7.408684
    17  H    7.529047   7.300473   8.587626   6.681755   7.205473
    18  H    9.091279   8.981071  10.116783   8.104306   8.459998
                    6          7          8          9         10
     6  C    0.000000
     7  H    1.081201   0.000000
     8  C    1.352356   2.113072   0.000000
     9  H    2.114919   3.073635   1.081276   0.000000
    10  C    2.479819   2.697006   1.484817   2.208471   0.000000
    11  H    2.708870   2.474840   2.207191   3.143569   1.080979
    12  C    3.713258   4.045265   2.486146   2.719256   1.354165
    13  H    4.049768   4.616373   2.704591   2.488706   2.112363
    14  C    4.992674   5.102165   3.887765   4.217842   2.512869
    15  H    5.786071   6.025177   4.566221   4.669271   3.349045
    16  C    5.580417   5.431835   4.693804   5.238908   3.212366
    17  H    5.197151   4.854684   4.543613   5.279161   3.092981
    18  H    6.658351   6.501447   5.745580   6.232803   4.271206
                   11         12         13         14         15
    11  H    0.000000
    12  C    2.113105   0.000000
    13  H    3.070419   1.079554   0.000000
    14  C    2.736605   1.499817   2.206305   0.000000
    15  H    3.757188   2.082571   2.287064   1.087812   0.000000
    16  C    2.959255   2.633103   3.504832   1.340347   2.085513
    17  H    2.488326   2.986683   4.010268   2.118264   3.064263
    18  H    4.032758   3.553631   4.288895   2.094321   2.383002
                   16         17         18
    16  C    0.000000
    17  H    1.082178   0.000000
    18  H    1.079059   1.861185   0.000000
 Stoichiometry    C8H10
 Framework group  CS[SG(C8H10)]
 Deg. of freedom    33
 Full point group                 CS      NOp   2
 Largest Abelian subgroup         CS      NOp   2
 Largest concise Abelian subgroup C1      NOp   1
                         Standard orientation:                         
 ---------------------------------------------------------------------
 Center     Atomic      Atomic             Coordinates (Angstroms)
 Number     Number       Type             X           Y           Z
 ---------------------------------------------------------------------
      1          6           0        0.540024    4.177654    0.000000
      2          1           0        1.614163    4.057915    0.000000
      3          1           0        0.129028    5.177285    0.000000
      4          6           0       -0.270118    3.102315    0.000000
      5          1           0       -1.344195    3.227053    0.000000
      6          6           0        0.267818    1.716066    0.000000
      7          1           0        1.341685    1.590351    0.000000
      8          6           0       -0.542109    0.633068    0.000000
      9          1           0       -1.616422    0.755584    0.000000
     10          6           0        0.000000   -0.749249    0.000000
     11          1           0        1.074214   -0.869993    0.000000
     12          6           0       -0.803457   -1.839304    0.000000
     13          1           0       -1.876344   -1.719512    0.000000
     14          6           0       -0.283434   -3.246082    0.000000
     15          1           0       -1.159269   -3.891254    0.000000
     16          6           0        0.925206   -3.825494    0.000000
     17          1           0        1.834819   -3.239223    0.000000
     18          1           0        0.998739   -4.902045    0.000000
 ---------------------------------------------------------------------
 Rotational constants (GHZ):     10.7333094      0.6121989      0.5791649
 Standard basis: 6-31G(d) (6D, 7F)
 There are   108 symmetry adapted basis functions of A'  symmetry.
 There are    32 symmetry adapted basis functions of A"  symmetry.
 Integral buffers will be    131072 words long.
 Raffenetti 2 integral format.
 Two-electron integral symmetry is turned on.
   140 basis functions,   264 primitive gaussians,   140 cartesian basis functions
    29 alpha electrons       29 beta electrons
       nuclear repulsion energy       297.3123022316 Hartrees.
 NAtoms=   18 NActive=   18 NUniq=   18 SFac= 1.00D+00 NAtFMM=   60 NAOKFM=F Big=F
 One-electron integrals computed using PRISM.
 NBasis=   140 RedAO= T  NBF=   108    32
 NBsUse=   140 1.00D-06 NBFU=   108    32
 Initial guess read from the read-write file.
 B after Tr=     0.000000    0.000000    0.000000
         Rot=    1.000000    0.000000    0.000000    0.000000 Ang=   0.00 deg.
 Initial guess orbital symmetries:
       Occupied  (A') (A') (A') (A') (A') (A') (A') (A') (A') (A')
                 (A') (A') (A') (A') (A') (A') (A') (A') (A') (A')
                 (A') (A') (A') (A') (A") (A') (A") (A") (A")
       Virtual   (A") (A") (A") (A") (A') (A') (A') (A') (A') (A')
                 (A') (A') (A') (A') (A') (A') (A') (A') (A') (A')
                 (A') (A') (A') (A") (A') (A") (A") (A') (A') (A")
                 (A') (A") (A') (A") (A') (A') (A') (A") (A") (A')
                 (A') (A') (A') (A') (A') (A') (A') (A') (A') (A')
                 (A') (A') (A') (A') (A') (A') (A') (A') (A') (A')
                 (A') (A") (A") (A") (A') (A") (A') (A") (A") (A")
                 (A") (A") (A') (A') (A') (A') (A') (A") (A') (A')
                 (A') (A") (A') (A') (A") (A') (A') (A') (A') (A")
                 (A") (A') (A") (A') (A") (A') (A') (A') (A') (A')
                 (A') (A') (A') (A') (A') (A') (A') (A') (A') (A')
                 (A')
 Harris functional with IExCor=  402 diagonalized for initial guess.
 ExpMin= 1.61D-01 ExpMax= 3.05D+03 ExpMxC= 4.57D+02 IAcc=1 IRadAn=         1 AccDes= 0.00D+00
 HarFok:  IExCor=  402 AccDes= 0.00D+00 IRadAn=         1 IDoV= 1
 ScaDFX=  1.000000  1.000000  1.000000  1.000000
 FoFCou: FMM=F IPFlag=           0 FMFlag=      100000 FMFlg1=           0
         NFxFlg=           0 DoJE=T BraDBF=F KetDBF=T FulRan=T
         Omega=  0.000000  0.000000  1.000000  0.000000  0.000000 ICntrl=     500 IOpCl=  0
         NMat0=    1 NMatS0=    1 NMatT0=    0 NMatD0=    1 NMtDS0=    0 NMtDT0=    0
         I1Cent=           4 NGrid=           0.
 Petite list used in FoFCou.
 Requested convergence on RMS density matrix=1.00D-08 within 128 cycles.
 Requested convergence on MAX density matrix=1.00D-06.
 Requested convergence on             energy=1.00D-06.
 No special actions if energy rises.
 Integral accuracy reduced to 1.0D-05 until final iterations.
 Initial convergence to 1.0D-05 achieved.  Increase integral accuracy.
 SCF Done:  E(RB3LYP) =  -310.791783190     A.U. after   13 cycles
             Convg  =    0.3764D-08             -V/T =  2.0105
 Calling FoFJK, ICntrl=      2127 FMM=F ISym2X=1 I1Cent= 0 IOpClX= 0 NMat=1 NMatS=1 NMatT=0.
 ***** Axes restored to original set *****
 -------------------------------------------------------------------
 Center     Atomic                   Forces (Hartrees/Bohr)
 Number     Number              X              Y              Z
 -------------------------------------------------------------------
      1        6           0.001504110    0.012484070    0.000000000
      2        1          -0.000308844   -0.004836322    0.000000000
      3        1          -0.003484947   -0.003100373    0.000000000
      4        6           0.023933168   -0.018161530    0.000000000
      5        1          -0.000971012    0.005057745    0.000000000
      6        6          -0.029156138    0.016269167    0.000000000
      7        1           0.001250901   -0.004988561    0.000000000
      8        6           0.031878538   -0.015812674    0.000000000
      9        1          -0.001496899    0.004879156    0.000000000
     10        6          -0.031062435    0.018249460    0.000000000
     11        1           0.000932561   -0.005143159    0.000000000
     12        6           0.028797792   -0.031909849    0.000000000
     13        1          -0.001042037    0.004871291    0.000000000
     14        6          -0.023589406    0.027878042    0.000000000
     15        1           0.011254563    0.001371877    0.000000000
     16        6          -0.015519475   -0.001228552    0.000000000
     17        1           0.002755288   -0.004428995    0.000000000
     18        1           0.004324271   -0.001450794    0.000000000
 -------------------------------------------------------------------
 Cartesian Forces:  Max     0.031909849 RMS     0.012558189

 GradGradGradGradGradGradGradGradGradGradGradGradGradGradGradGradGradGrad
 Berny optimization.
 Using GEDIIS/GDIIS optimizer.
 Internal  Forces:  Max     0.024589186 RMS     0.006856433
 Search for a local minimum.
 Step number   2 out of a maximum of   79
 All quantities printed in internal units (Hartrees-Bohrs-Radians)
 Mixed Optimization -- RFO/linear search
 Update second derivatives using D2CorX and points    1    2
 DE= -2.55D-02 DEPred=-2.36D-02 R= 1.08D+00
 SS=  1.41D+00  RLast= 3.00D-01 DXNew= 5.0454D-01 9.0000D-01
 Trust test= 1.08D+00 RLast= 3.00D-01 DXMaxT set to 5.05D-01
 ITU=  1  0
 Use linear search instead of GDIIS.
     Eigenvalues ---    0.00237   0.00237   0.00237   0.01484   0.01485
     Eigenvalues ---    0.01487   0.01489   0.01498   0.01562   0.02681
     Eigenvalues ---    0.02681   0.02681   0.02681   0.02681   0.02681
     Eigenvalues ---    0.15106   0.16000   0.16000   0.16000   0.16000
     Eigenvalues ---    0.16000   0.16000   0.16000   0.16000   0.17088
     Eigenvalues ---    0.18262   0.22000   0.22000   0.22000   0.22000
     Eigenvalues ---    0.22131   0.26704   0.28519   0.28759   0.37081
     Eigenvalues ---    0.37230   0.37230   0.37230   0.37230   0.37230
     Eigenvalues ---    0.37230   0.37230   0.37230   0.38073   0.53907
     Eigenvalues ---    0.53930   0.53930   0.55892
 RFO step:  Lambda=-2.41498607D-03 EMin= 2.36824057D-03
 Quartic linear search produced a step of  0.82103.
 Iteration  1 RMS(Cart)=  0.07908375 RMS(Int)=  0.00255037
 Iteration  2 RMS(Cart)=  0.00450352 RMS(Int)=  0.00000206
 Iteration  3 RMS(Cart)=  0.00000512 RMS(Int)=  0.00000000
 Iteration  4 RMS(Cart)=  0.00000000 RMS(Int)=  0.00000000
 ClnCor:  largest displacement from symmetrization is 3.07D-12 for atom    18.
 Variable       Old X    -DE/DX   Delta X   Delta X   Delta X     New X
                                 (Linear)    (Quad)   (Total)
    R1        2.04240   0.00411   0.01674  -0.00480   0.01194   2.05434
    R2        2.04246   0.00346   0.01679  -0.00801   0.00878   2.05125
    R3        2.54425  -0.00272  -0.01372   0.01022  -0.00350   2.54075
    R4        2.04335   0.00491   0.01752  -0.00209   0.01544   2.05879
    R5        2.80995  -0.02056  -0.08229  -0.00285  -0.08514   2.72481
    R6        2.04317   0.00498   0.01738  -0.00153   0.01585   2.05902
    R7        2.55558   0.00142  -0.00441   0.01099   0.00658   2.56216
    R8        2.04332   0.00500   0.01749  -0.00157   0.01592   2.05923
    R9        2.80590  -0.02307  -0.08562  -0.01359  -0.09921   2.70669
   R10        2.04275   0.00497   0.01703  -0.00106   0.01597   2.05873
   R11        2.55900  -0.00051  -0.00161   0.00055  -0.00106   2.55794
   R12        2.04006   0.00478   0.01482   0.00130   0.01613   2.05619
   R13        2.83424  -0.02012  -0.06234  -0.03090  -0.09325   2.74099
   R14        2.05567   0.00413   0.02764  -0.02082   0.00682   2.06248
   R15        2.53289  -0.00143  -0.02305   0.02770   0.00465   2.53754
   R16        2.04502   0.00383   0.01889  -0.00933   0.00957   2.05459
   R17        2.03913   0.00366   0.01406  -0.00300   0.01105   2.05018
    A1        2.07189  -0.00387  -0.01685  -0.01360  -0.03045   2.04144
    A2        2.10544   0.00137   0.00582   0.00506   0.01087   2.11632
    A3        2.10585   0.00250   0.01103   0.00854   0.01958   2.12543
    A4        2.10084  -0.00221   0.00204  -0.01873  -0.01669   2.08415
    A5        2.12577   0.00762   0.02738   0.01772   0.04510   2.17087
    A6        2.05658  -0.00541  -0.02942   0.00101  -0.02841   2.02817
    A7        2.05750  -0.00480  -0.02867   0.00568  -0.02299   2.03451
    A8        2.12930   0.00696   0.02541   0.01550   0.04091   2.17021
    A9        2.09639  -0.00216   0.00326  -0.02118  -0.01792   2.07847
   A10        2.09937  -0.00275   0.00083  -0.02274  -0.02191   2.07746
   A11        2.12572   0.00756   0.02735   0.01731   0.04465   2.17037
   A12        2.05809  -0.00481  -0.02818   0.00544  -0.02274   2.03535
   A13        2.05647  -0.00486  -0.02951   0.00547  -0.02404   2.03243
   A14        2.13267   0.00640   0.02817   0.00644   0.03461   2.16728
   A15        2.09404  -0.00154   0.00134  -0.01191  -0.01057   2.08347
   A16        2.09478  -0.00367  -0.00293  -0.02393  -0.02686   2.06793
   A17        2.15233   0.01018   0.04920   0.00311   0.05231   2.20464
   A18        2.03607  -0.00652  -0.04626   0.02081  -0.02545   2.01062
   A19        1.85161   0.02315   0.12663   0.00513   0.13176   1.98338
   A20        2.37190  -0.02459  -0.09975  -0.03854  -0.13829   2.23361
   A21        2.05967   0.00144  -0.02688   0.03341   0.00653   2.06620
   A22        2.12205   0.00298   0.01945  -0.00107   0.01838   2.14043
   A23        2.08602   0.00129  -0.00525   0.02371   0.01846   2.10448
   A24        2.07512  -0.00426  -0.01420  -0.02264  -0.03684   2.03827
    D1        3.14159   0.00000   0.00000   0.00000   0.00000   3.14159
    D2        0.00000   0.00000   0.00000   0.00000   0.00000   0.00000
    D3        0.00000   0.00000   0.00000   0.00000   0.00000   0.00000
    D4        3.14159   0.00000   0.00000   0.00000   0.00000   3.14159
    D5        0.00000   0.00000   0.00000   0.00000   0.00000   0.00000
    D6        3.14159   0.00000   0.00000   0.00000   0.00000   3.14159
    D7        3.14159   0.00000   0.00000   0.00000   0.00000   3.14159
    D8        0.00000   0.00000   0.00000   0.00000   0.00000   0.00000
    D9        0.00000   0.00000   0.00000   0.00000   0.00000   0.00000
   D10        3.14159   0.00000   0.00000   0.00000   0.00000   3.14159
   D11        3.14159   0.00000   0.00000   0.00000   0.00000   3.14159
   D12        0.00000   0.00000   0.00000   0.00000   0.00000   0.00000
   D13        0.00000   0.00000   0.00000   0.00000   0.00000   0.00000
   D14        3.14159   0.00000   0.00000   0.00000   0.00000   3.14159
   D15        3.14159   0.00000   0.00000   0.00000   0.00000   3.14159
   D16        0.00000   0.00000   0.00000   0.00000   0.00000   0.00000
   D17        0.00000   0.00000   0.00000   0.00000   0.00000   0.00000
   D18        3.14159   0.00000   0.00000   0.00000   0.00000   3.14159
   D19        3.14159   0.00000   0.00000   0.00000   0.00000   3.14159
   D20        0.00000   0.00000   0.00000   0.00000   0.00000   0.00000
   D21        3.14159   0.00000   0.00000   0.00000   0.00000   3.14159
   D22        0.00000   0.00000   0.00000   0.00000   0.00000   0.00000
   D23        0.00000   0.00000   0.00000   0.00000   0.00000   0.00000
   D24        3.14159   0.00000   0.00000   0.00000   0.00000   3.14159
   D25        0.00000   0.00000   0.00000   0.00000   0.00000   0.00000
   D26        3.14159   0.00000   0.00000   0.00000   0.00000   3.14159
   D27        3.14159   0.00000   0.00000   0.00000   0.00000   3.14159
   D28        0.00000   0.00000   0.00000   0.00000   0.00000   0.00000
         Item               Value     Threshold  Converged?
 Maximum Force            0.024589     0.000450     NO 
 RMS     Force            0.006856     0.000300     NO 
 Maximum Displacement     0.405607     0.001800     NO 
 RMS     Displacement     0.081633     0.001200     NO 
 Predicted change in Energy=-8.819694D-03
 GradGradGradGradGradGradGradGradGradGradGradGradGradGradGradGradGradGrad

                          Input orientation:                          
 ---------------------------------------------------------------------
 Center     Atomic      Atomic             Coordinates (Angstroms)
 Number     Number       Type             X           Y           Z
 ---------------------------------------------------------------------
      1          6           0       -4.700055   -2.770808    0.099126
      2          1           0       -4.219964   -3.746165    0.099126
      3          1           0       -5.785433   -2.756437    0.099126
      4          6           0       -3.976928   -1.637322    0.099126
      5          1           0       -4.489248   -0.675832    0.099126
      6          6           0       -2.535766   -1.590894    0.099126
      7          1           0       -2.017301   -2.549224    0.099126
      8          6           0       -1.807304   -0.447374    0.099126
      9          1           0       -2.326787    0.510531    0.099126
     10          6           0       -0.375737   -0.401017    0.099126
     11          1           0        0.140822   -1.360198    0.099126
     12          6           0        0.347996    0.742862    0.099126
     13          1           0       -0.182755    1.692723    0.099126
     14          6           0        1.794943    0.843918    0.099126
     15          1           0        2.161850    1.871816    0.099126
     16          6           0        2.692959   -0.154431    0.099126
     17          1           0        2.404403   -1.202681    0.099126
     18          1           0        3.756486    0.059891    0.099126
 ---------------------------------------------------------------------
                    Distance matrix (angstroms):
                    1          2          3          4          5
     1  C    0.000000
     2  H    1.087110   0.000000
     3  H    1.085473   1.852094   0.000000
     4  C    1.344509   2.122802   2.126760   0.000000
     5  H    2.105555   3.082119   2.451329   1.089465   0.000000
     6  C    2.465024   2.735273   3.452365   1.441909   2.157180
     7  H    2.691890   2.506870   3.773826   2.161413   3.101632
     8  C    3.710304   4.086925   4.599705   2.474519   2.691657
     9  H    4.049641   4.658711   4.757659   2.708549   2.466515
    10  C    4.931089   5.095890   5.900239   3.807496   4.122681
    11  H    5.042214   4.970845   6.088513   4.127065   4.680375
    12  C    6.150504   6.404501   7.061448   4.936623   5.040994
    13  H    6.350520   6.773519   7.154371   5.048261   4.914868
    14  C    7.433118   7.566239   8.391940   6.282599   6.465346
    15  H    8.284908   8.502310   9.196740   7.070972   7.122332
    16  C    7.842327   7.790319   8.868685   6.832741   7.201108
    17  H    7.275462   7.095883   8.335920   6.396115   6.913753
    18  H    8.917732   8.837976   9.948865   7.917463   8.278491
                    6          7          8          9         10
     6  C    0.000000
     7  H    1.089589   0.000000
     8  C    1.355837   2.112314   0.000000
     9  H    2.111791   3.075368   1.089700   0.000000
    10  C    2.466077   2.703613   1.432317   2.153490   0.000000
    11  H    2.686512   2.463996   2.151382   3.096567   1.089432
    12  C    3.709785   4.053697   2.462109   2.684854   1.353606
    13  H    4.039653   4.621652   2.686852   2.448356   2.102615
    14  C    4.968234   5.103588   3.826698   4.135191   2.502342
    15  H    5.835920   6.083658   4.597045   4.690517   3.406629
    16  C    5.422453   5.284087   4.509787   5.063598   3.078587
    17  H    4.955399   4.622190   4.278897   5.031824   2.893413
    18  H    6.505192   6.335937   5.586866   6.099941   4.157848
                   11         12         13         14         15
    11  H    0.000000
    12  C    2.113240   0.000000
    13  H    3.070021   1.088087   0.000000
    14  C    2.755765   1.450471   2.152153   0.000000
    15  H    3.811885   2.136493   2.351435   1.091419   0.000000
    16  C    2.822636   2.510773   3.417851   1.342807   2.094697
    17  H    2.269054   2.830891   3.882879   2.135417   3.084050
    18  H    3.884543   3.476241   4.264242   2.112427   2.413698
                   16         17         18
    16  C    0.000000
    17  H    1.087241   0.000000
    18  H    1.084907   1.849924   0.000000
 Stoichiometry    C8H10
 Framework group  CS[SG(C8H10)]
 Deg. of freedom    33
 Full point group                 CS      NOp   2
 Largest Abelian subgroup         CS      NOp   2
 Largest concise Abelian subgroup C1      NOp   1
                         Standard orientation:                         
 ---------------------------------------------------------------------
 Center     Atomic      Atomic             Coordinates (Angstroms)
 Number     Number       Type             X           Y           Z
 ---------------------------------------------------------------------
      1          6           0        0.455068    4.156086    0.000000
      2          1           0        1.540900    4.103377    0.000000
      3          1           0        0.010335    5.146269    0.000000
      4          6           0       -0.297456    3.041899    0.000000
      5          1           0       -1.383377    3.129693    0.000000
      6          6           0        0.232951    1.701089    0.000000
      7          1           0        1.318418    1.606400    0.000000
      8          6           0       -0.526657    0.578018    0.000000
      9          1           0       -1.612139    0.673809    0.000000
     10          6           0        0.000000   -0.753960    0.000000
     11          1           0        1.085489   -0.846562    0.000000
     12          6           0       -0.761819   -1.872835    0.000000
     13          1           0       -1.844399   -1.763505    0.000000
     14          6           0       -0.279236   -3.240673    0.000000
     15          1           0       -1.076511   -3.986025    0.000000
     16          6           0        0.993859   -3.667711    0.000000
     17          1           0        1.840959   -2.986158    0.000000
     18          1           0        1.220065   -4.728774    0.000000
 ---------------------------------------------------------------------
 Rotational constants (GHZ):     10.8368278      0.6306074      0.5959296
 Standard basis: 6-31G(d) (6D, 7F)
 There are   108 symmetry adapted basis functions of A'  symmetry.
 There are    32 symmetry adapted basis functions of A"  symmetry.
 Integral buffers will be    131072 words long.
 Raffenetti 2 integral format.
 Two-electron integral symmetry is turned on.
   140 basis functions,   264 primitive gaussians,   140 cartesian basis functions
    29 alpha electrons       29 beta electrons
       nuclear repulsion energy       300.5477228331 Hartrees.
 NAtoms=   18 NActive=   18 NUniq=   18 SFac= 1.00D+00 NAtFMM=   60 NAOKFM=F Big=F
 One-electron integrals computed using PRISM.
 NBasis=   140 RedAO= T  NBF=   108    32
 NBsUse=   140 1.00D-06 NBFU=   108    32
 Initial guess read from the read-write file.
 B after Tr=     0.000000    0.000000    0.000000
         Rot=    1.000000    0.000000    0.000000    0.000000 Ang=   0.00 deg.
 Initial guess orbital symmetries:
       Occupied  (A') (A') (A') (A') (A') (A') (A') (A') (A') (A')
                 (A') (A') (A') (A') (A') (A') (A') (A') (A') (A')
                 (A') (A') (A') (A') (A") (A') (A") (A") (A")
       Virtual   (A") (A") (A") (A') (A') (A") (A') (A') (A') (A')
                 (A') (A') (A') (A') (A') (A') (A') (A') (A') (A')
                 (A') (A') (A') (A") (A") (A') (A") (A') (A') (A")
                 (A') (A") (A') (A') (A") (A') (A') (A") (A") (A')
                 (A') (A') (A') (A') (A') (A') (A') (A') (A') (A')
                 (A') (A') (A') (A') (A') (A') (A') (A') (A') (A')
                 (A") (A') (A") (A") (A') (A") (A") (A') (A") (A")
                 (A") (A") (A') (A') (A') (A') (A') (A") (A') (A')
                 (A') (A") (A') (A') (A") (A') (A') (A') (A') (A")
                 (A') (A") (A") (A') (A") (A') (A') (A') (A') (A')
                 (A') (A') (A') (A') (A') (A') (A') (A') (A') (A')
                 (A')
 Harris functional with IExCor=  402 diagonalized for initial guess.
 ExpMin= 1.61D-01 ExpMax= 3.05D+03 ExpMxC= 4.57D+02 IAcc=1 IRadAn=         1 AccDes= 0.00D+00
 HarFok:  IExCor=  402 AccDes= 0.00D+00 IRadAn=         1 IDoV= 1
 ScaDFX=  1.000000  1.000000  1.000000  1.000000
 FoFCou: FMM=F IPFlag=           0 FMFlag=      100000 FMFlg1=           0
         NFxFlg=           0 DoJE=T BraDBF=F KetDBF=T FulRan=T
         Omega=  0.000000  0.000000  1.000000  0.000000  0.000000 ICntrl=     500 IOpCl=  0
         NMat0=    1 NMatS0=    1 NMatT0=    0 NMatD0=    1 NMtDS0=    0 NMtDT0=    0
         I1Cent=           4 NGrid=           0.
 Petite list used in FoFCou.
 Requested convergence on RMS density matrix=1.00D-08 within 128 cycles.
 Requested convergence on MAX density matrix=1.00D-06.
 Requested convergence on             energy=1.00D-06.
 No special actions if energy rises.
 Integral accuracy reduced to 1.0D-05 until final iterations.
 Initial convergence to 1.0D-05 achieved.  Increase integral accuracy.
 SCF Done:  E(RB3LYP) =  -310.799645055     A.U. after   13 cycles
             Convg  =    0.5317D-08             -V/T =  2.0100
 Calling FoFJK, ICntrl=      2127 FMM=F ISym2X=1 I1Cent= 0 IOpClX= 0 NMat=1 NMatS=1 NMatT=0.
 ***** Axes restored to original set *****
 -------------------------------------------------------------------
 Center     Atomic                   Forces (Hartrees/Bohr)
 Number     Number              X              Y              Z
 -------------------------------------------------------------------
      1        6          -0.000179952    0.000842137    0.000000000
      2        1          -0.000273883   -0.000552869    0.000000000
      3        1           0.000008690   -0.000247689    0.000000000
      4        6          -0.002618333   -0.000394024    0.000000000
      5        1          -0.000966097    0.000395197    0.000000000
      6        6           0.001647843    0.000000458    0.000000000
      7        1           0.000966277   -0.000497040    0.000000000
      8        6          -0.003159595   -0.000219163    0.000000000
      9        1          -0.001174790    0.000507122    0.000000000
     10        6           0.001645724   -0.000742884    0.000000000
     11        1           0.000274724   -0.000339679    0.000000000
     12        6          -0.001958289   -0.001575226    0.000000000
     13        1          -0.001951220    0.000175333    0.000000000
     14        6           0.003415144    0.004479886    0.000000000
     15        1           0.002164993   -0.001749241    0.000000000
     16        6           0.000995696    0.000544385    0.000000000
     17        1           0.000558173    0.000231737    0.000000000
     18        1           0.000604894   -0.000858440    0.000000000
 -------------------------------------------------------------------
 Cartesian Forces:  Max     0.004479886 RMS     0.001222395

 GradGradGradGradGradGradGradGradGradGradGradGradGradGradGradGradGradGrad
 Berny optimization.
 Using GEDIIS/GDIIS optimizer.
 Internal  Forces:  Max     0.007904680 RMS     0.001585166
 Search for a local minimum.
 Step number   3 out of a maximum of   79
 All quantities printed in internal units (Hartrees-Bohrs-Radians)
 Mixed Optimization -- RFO/linear search
 Update second derivatives using D2CorX and points    1    2    3
 DE= -7.86D-03 DEPred=-8.82D-03 R= 8.91D-01
 SS=  1.41D+00  RLast= 2.87D-01 DXNew= 8.4853D-01 8.6024D-01
 Trust test= 8.91D-01 RLast= 2.87D-01 DXMaxT set to 8.49D-01
 ITU=  1  1  0
 Use linear search instead of GDIIS.
     Eigenvalues ---    0.00237   0.00237   0.00237   0.01486   0.01487
     Eigenvalues ---    0.01492   0.01495   0.01495   0.01509   0.02681
     Eigenvalues ---    0.02681   0.02681   0.02681   0.02681   0.02681
     Eigenvalues ---    0.14302   0.16000   0.16000   0.16000   0.16000
     Eigenvalues ---    0.16000   0.16000   0.16000   0.16032   0.17115
     Eigenvalues ---    0.19341   0.22000   0.22000   0.22000   0.22069
     Eigenvalues ---    0.22164   0.28518   0.28675   0.30918   0.36902
     Eigenvalues ---    0.37230   0.37230   0.37230   0.37230   0.37230
     Eigenvalues ---    0.37230   0.37230   0.37233   0.38224   0.53890
     Eigenvalues ---    0.53930   0.54008   0.56263
 RFO step:  Lambda=-5.81993756D-04 EMin= 2.36824057D-03
 Quartic linear search produced a step of -0.04665.
 Iteration  1 RMS(Cart)=  0.02381989 RMS(Int)=  0.00006418
 Iteration  2 RMS(Cart)=  0.00012677 RMS(Int)=  0.00000000
 Iteration  3 RMS(Cart)=  0.00000001 RMS(Int)=  0.00000000
 ClnCor:  largest displacement from symmetrization is 8.61D-13 for atom    16.
 Variable       Old X    -DE/DX   Delta X   Delta X   Delta X     New X
                                 (Linear)    (Quad)   (Total)
    R1        2.05434   0.00038  -0.00056   0.00194   0.00138   2.05572
    R2        2.05125  -0.00001  -0.00041   0.00078   0.00038   2.05162
    R3        2.54075   0.00020   0.00016  -0.00008   0.00008   2.54083
    R4        2.05879   0.00080  -0.00072   0.00323   0.00251   2.06130
    R5        2.72481   0.00403   0.00397   0.00700   0.01097   2.73579
    R6        2.05902   0.00090  -0.00074   0.00349   0.00275   2.06178
    R7        2.56216   0.00114  -0.00031   0.00227   0.00196   2.56413
    R8        2.05923   0.00101  -0.00074   0.00377   0.00303   2.06227
    R9        2.70669   0.00575   0.00463   0.01193   0.01656   2.72325
   R10        2.05873   0.00043  -0.00075   0.00229   0.00155   2.06028
   R11        2.55794   0.00310   0.00005   0.00539   0.00544   2.56338
   R12        2.05619   0.00110  -0.00075   0.00398   0.00323   2.05942
   R13        2.74099   0.00790   0.00435   0.01996   0.02431   2.76530
   R14        2.06248  -0.00092  -0.00032  -0.00141  -0.00173   2.06076
   R15        2.53754   0.00151  -0.00022   0.00245   0.00223   2.53977
   R16        2.05459  -0.00037  -0.00045  -0.00005  -0.00049   2.05409
   R17        2.05018   0.00042  -0.00052   0.00196   0.00144   2.05162
    A1        2.04144  -0.00050   0.00142  -0.00519  -0.00377   2.03768
    A2        2.11632   0.00050  -0.00051   0.00375   0.00325   2.11956
    A3        2.12543   0.00000  -0.00091   0.00143   0.00052   2.12595
    A4        2.08415  -0.00096   0.00078  -0.00604  -0.00527   2.07888
    A5        2.17087   0.00055  -0.00210   0.00551   0.00341   2.17428
    A6        2.02817   0.00041   0.00133   0.00053   0.00186   2.03003
    A7        2.03451   0.00062   0.00107   0.00168   0.00275   2.03726
    A8        2.17021   0.00002  -0.00191   0.00293   0.00102   2.17123
    A9        2.07847  -0.00064   0.00084  -0.00461  -0.00377   2.07470
   A10        2.07746  -0.00114   0.00102  -0.00734  -0.00631   2.07115
   A11        2.17037   0.00064  -0.00208   0.00589   0.00381   2.17418
   A12        2.03535   0.00049   0.00106   0.00144   0.00250   2.03785
   A13        2.03243   0.00012   0.00112  -0.00145  -0.00032   2.03211
   A14        2.16728  -0.00008  -0.00161   0.00223   0.00062   2.16790
   A15        2.08347  -0.00004   0.00049  -0.00079  -0.00029   2.08318
   A16        2.06793  -0.00331   0.00125  -0.01845  -0.01719   2.05073
   A17        2.20464   0.00330  -0.00244   0.01833   0.01589   2.22053
   A18        2.01062   0.00001   0.00119   0.00012   0.00130   2.01192
   A19        1.98338   0.00263  -0.00615   0.02647   0.02033   2.00370
   A20        2.23361   0.00015   0.00645  -0.00935  -0.00290   2.23071
   A21        2.06620  -0.00279  -0.00030  -0.01712  -0.01743   2.04877
   A22        2.14043   0.00000  -0.00086   0.00157   0.00071   2.14114
   A23        2.10448   0.00099  -0.00086   0.00674   0.00588   2.11036
   A24        2.03827  -0.00098   0.00172  -0.00831  -0.00659   2.03169
    D1        3.14159   0.00000   0.00000   0.00000   0.00000   3.14159
    D2        0.00000   0.00000   0.00000   0.00000   0.00000   0.00000
    D3        0.00000   0.00000   0.00000   0.00000   0.00000   0.00000
    D4        3.14159   0.00000   0.00000   0.00000   0.00000   3.14159
    D5        0.00000   0.00000   0.00000   0.00000   0.00000   0.00000
    D6        3.14159   0.00000   0.00000   0.00000   0.00000   3.14159
    D7        3.14159   0.00000   0.00000   0.00000   0.00000   3.14159
    D8        0.00000   0.00000   0.00000   0.00000   0.00000   0.00000
    D9        0.00000   0.00000   0.00000   0.00000   0.00000   0.00000
   D10        3.14159   0.00000   0.00000   0.00000   0.00000   3.14159
   D11        3.14159   0.00000   0.00000   0.00000   0.00000   3.14159
   D12        0.00000   0.00000   0.00000   0.00000   0.00000   0.00000
   D13        0.00000   0.00000   0.00000   0.00000   0.00000   0.00000
   D14        3.14159   0.00000   0.00000   0.00000   0.00000   3.14159
   D15        3.14159   0.00000   0.00000   0.00000   0.00000   3.14159
   D16        0.00000   0.00000   0.00000   0.00000   0.00000   0.00000
   D17        0.00000   0.00000   0.00000   0.00000   0.00000   0.00000
   D18        3.14159   0.00000   0.00000   0.00000   0.00000   3.14159
   D19        3.14159   0.00000   0.00000   0.00000   0.00000   3.14159
   D20        0.00000   0.00000   0.00000   0.00000   0.00000   0.00000
   D21        3.14159   0.00000   0.00000   0.00000   0.00000   3.14159
   D22        0.00000   0.00000   0.00000   0.00000   0.00000   0.00000
   D23        0.00000   0.00000   0.00000   0.00000   0.00000   0.00000
   D24        3.14159   0.00000   0.00000   0.00000   0.00000   3.14159
   D25        0.00000   0.00000   0.00000   0.00000   0.00000   0.00000
   D26        3.14159   0.00000   0.00000   0.00000   0.00000   3.14159
   D27        3.14159   0.00000   0.00000   0.00000   0.00000   3.14159
   D28        0.00000   0.00000   0.00000   0.00000   0.00000   0.00000
         Item               Value     Threshold  Converged?
 Maximum Force            0.007905     0.000450     NO 
 RMS     Force            0.001585     0.000300     NO 
 Maximum Displacement     0.082168     0.001800     NO 
 RMS     Displacement     0.023834     0.001200     NO 
 Predicted change in Energy=-3.095358D-04
 GradGradGradGradGradGradGradGradGradGradGradGradGradGradGradGradGradGrad

                          Input orientation:                          
 ---------------------------------------------------------------------
 Center     Atomic      Atomic             Coordinates (Angstroms)
 Number     Number       Type             X           Y           Z
 ---------------------------------------------------------------------
      1          6           0       -4.724446   -2.769579    0.099126
      2          1           0       -4.253885   -3.750380    0.099126
      3          1           0       -5.809910   -2.748362    0.099126
      4          6           0       -3.993579   -1.641018    0.099126
      5          1           0       -4.505023   -0.677558    0.099126
      6          6           0       -2.546462   -1.599350    0.099126
      7          1           0       -2.027944   -2.559307    0.099126
      8          6           0       -1.812368   -0.458201    0.099126
      9          1           0       -2.334414    0.500138    0.099126
     10          6           0       -0.372014   -0.412464    0.099126
     11          1           0        0.144021   -1.372859    0.099126
     12          6           0        0.354684    0.732944    0.099126
     13          1           0       -0.192006    1.675697    0.099126
     14          6           0        1.812813    0.856263    0.099126
     15          1           0        2.185242    1.881202    0.099126
     16          6           0        2.723294   -0.132338    0.099126
     17          1           0        2.447884   -1.183848    0.099126
     18          1           0        3.786293    0.088377    0.099126
 ---------------------------------------------------------------------
                    Distance matrix (angstroms):
                    1          2          3          4          5
     1  C    0.000000
     2  H    1.087841   0.000000
     3  H    1.085671   1.850744   0.000000
     4  C    1.344550   2.125362   2.127268   0.000000
     5  H    2.103497   3.083068   2.447644   1.090794   0.000000
     6  C    2.472459   2.746311   3.459815   1.447717   2.164639
     7  H    2.704689   2.524573   3.786689   2.169557   3.110772
     8  C    3.717885   4.098713   4.607079   2.481277   2.701575
     9  H    4.050099   4.663826   4.757292   2.708760   2.469516
    10  C    4.949713   5.119629   5.918372   3.824275   4.141502
    11  H    5.064859   4.999419   6.110753   4.146280   4.700750
    12  C    6.169702   6.429549   7.079668   4.954098   5.060263
    13  H    6.348503   6.777992   7.150744   5.045053   4.913240
    14  C    7.475460   7.617480   8.432036   6.320649   6.501359
    15  H    8.329079   8.554360   9.238794   7.112233   7.162883
    16  C    7.900878   7.859469   8.925198   6.884221   7.248851
    17  H    7.345533   7.176405   8.404693   6.457666   6.971316
    18  H    8.977783   8.909574  10.006707   7.969768   8.326618
                    6          7          8          9         10
     6  C    0.000000
     7  H    1.091044   0.000000
     8  C    1.356877   2.112137   0.000000
[...]
   A23        2.11205   0.00002   0.00000   0.00019   0.00019   2.11223
   A24        2.03009   0.00000   0.00000  -0.00004  -0.00004   2.03005
    D1        3.14159   0.00000   0.00000   0.00000   0.00000   3.14159
    D2        0.00000   0.00000   0.00000   0.00000   0.00000   0.00000
    D3        0.00000   0.00000   0.00000   0.00000   0.00000   0.00000
    D4        3.14159   0.00000   0.00000   0.00000   0.00000   3.14159
    D5        0.00000   0.00000   0.00000   0.00000   0.00000   0.00000
    D6        3.14159   0.00000   0.00000   0.00000   0.00000   3.14159
    D7        3.14159   0.00000   0.00000   0.00000   0.00000   3.14159
    D8        0.00000   0.00000   0.00000   0.00000   0.00000   0.00000
    D9        0.00000   0.00000   0.00000   0.00000   0.00000   0.00000
   D10        3.14159   0.00000   0.00000   0.00000   0.00000   3.14159
   D11        3.14159   0.00000   0.00000   0.00000   0.00000   3.14159
   D12        0.00000   0.00000   0.00000   0.00000   0.00000   0.00000
   D13        0.00000   0.00000   0.00000   0.00000   0.00000   0.00000
   D14        3.14159   0.00000   0.00000   0.00000   0.00000   3.14159
   D15        3.14159   0.00000   0.00000   0.00000   0.00000   3.14159
   D16        0.00000   0.00000   0.00000   0.00000   0.00000   0.00000
   D17        0.00000   0.00000   0.00000   0.00000   0.00000   0.00000
   D18        3.14159   0.00000   0.00000   0.00000   0.00000   3.14159
   D19        3.14159   0.00000   0.00000   0.00000   0.00000   3.14159
   D20        0.00000   0.00000   0.00000   0.00000   0.00000   0.00000
   D21        3.14159   0.00000   0.00000   0.00000   0.00000   3.14159
   D22        0.00000   0.00000   0.00000   0.00000   0.00000   0.00000
   D23        0.00000   0.00000   0.00000   0.00000   0.00000   0.00000
   D24        3.14159   0.00000   0.00000   0.00000   0.00000   3.14159
   D25        0.00000   0.00000   0.00000   0.00000   0.00000   0.00000
   D26        3.14159   0.00000   0.00000   0.00000   0.00000   3.14159
   D27        3.14159   0.00000   0.00000   0.00000   0.00000   3.14159
   D28        0.00000   0.00000   0.00000   0.00000   0.00000   0.00000
         Item               Value     Threshold  Converged?
 Maximum Force            0.000045     0.000450     YES
 RMS     Force            0.000015     0.000300     YES
 Maximum Displacement     0.001806     0.001800     NO 
 RMS     Displacement     0.000604     0.001200     YES
 Predicted change in Energy=-4.164678D-08
 GradGradGradGradGradGradGradGradGradGradGradGradGradGradGradGradGradGrad

 1\1\GINC-NISER-THINKCENTRE-M93P\Freq\RB3LYP\6-31G(d)\C8H10\STUDENT\02-
 Mar-2021\0\\#N Geom=AllCheck Guess=TCheck SCRF=Check GenChk RB3LYP/6-3
 1G(d) Freq\\Title Card Required\\0,1\C,-4.7209793257,-2.7661865767,0.0
 991259702\H,-4.2537759789,-3.7484540982,0.0991259702\H,-5.8062644368,-
 2.7422473397,0.0991259702\C,-3.9886245371,-1.6390346023,0.0991259702\H
 ,-4.4985824605,-0.6749980074,0.0991259702\C,-2.5416631006,-1.600346215
 4,0.0991259702\H,-2.0241497902,-2.560618254,0.0991259702\C,-1.80868718
 51,-0.4593451694,0.0991259702\H,-2.3302505826,0.4990830382,0.099125970
 2\C,-0.3691158341,-0.4153250748,0.0991259702\H,0.1462857862,-1.3759563
 545,0.0991259702\C,0.3530638266,0.7316622388,0.0991259702\H,-0.1976024
 365,1.6723630449,0.0991259702\C,1.8075764543,0.8570295286,0.0991259702
 \H,2.1769521374,1.8821226426,0.0991259702\C,2.7170089146,-0.1323261251
 ,0.0991259702\H,2.4404774555,-1.1836279681,0.0991259702\H,3.7805115835
 ,0.0855617326,0.0991259702\\Version=EM64L-G09RevC.01\State=1-A'\HF=-31
 0.79991\RMSD=3.007e-09\RMSF=1.873e-05\ZeroPoint=0.1525706\Thermal=0.16
 07782\Dipole=-0.0035535,0.0406575,0.\DipoleDeriv=-0.213614,-0.225927,0
 .,-0.0900464,0.0313632,0.,0.,0.,-0.3134536,0.0019906,0.0889003,0.,0.04
 15934,-0.064959,0.,0.,0.,0.1388856,-0.1141373,-0.0200657,0.,0.0001799,
 0.0311983,0.,0.,0.,0.1364585,0.3472469,0.135269,0.,-0.2056709,0.023399
 3,0.,0.,0.,-0.0729958,-0.0297715,0.0193493,0.,0.1143276,-0.0791826,0.,
 0.,0.,0.1081445,-0.0505717,-0.0613607,0.,0.0710291,0.1224763,0.,0.,0.,
 -0.1107695,-0.0360882,0.0514335,0.,0.0747342,-0.071486,0.,0.,0.,0.1124
 298,0.1195857,-0.0237098,0.,-0.1202137,0.1181484,0.,0.,0.,-0.112253,-0
 .0369803,0.0471215,0.,0.0960077,-0.0705621,0.,0.,0.,0.1110471,0.110227
 5,0.0708898,0.,-0.0568635,0.0073773,0.,0.,0.,-0.0856494,-0.0274919,0.0
 377831,0.,0.0870881,-0.0644187,0.,0.,0.,0.1059477,-0.0166551,-0.172617
 5,0.,-0.4043193,0.0133325,0.,0.,0.,-0.1276802,-0.0237883,0.0902635,0.,
 0.073352,-0.07488,0.,0.,0.,0.1121722,0.3441301,0.1511848,0.,0.4215148,
 0.2275773,0.,0.,0.,-0.088096,-0.0200091,-0.0558694,0.,-0.0988178,-0.13
 54946,0.,0.,0.,0.1103128,-0.2734442,-0.0419966,0.,0.0464851,0.0166899,
 0.,0.,0.,-0.2929178,0.0327773,-0.0652278,0.,-0.0270809,-0.0831727,0.,0
 .,0.,0.1351619,-0.1134066,-0.0254205,0.,-0.0232993,0.0525933,0.,0.,0.,
 0.1332553\Polar=208.5489405,61.8168783,113.7811234,0.,0.,29.1128051\PG
 =CS [SG(C8H10)]\NImag=1\\0.71303118,0.08660631,0.77130511,0.,0.,0.1011
 9086,-0.11503553,0.11256469,0.,0.11136820,0.10894493,-0.28342077,0.,-0
 .11887678,0.30366411,0.,0.,-0.03328349,0.,0.,0.02193282,-0.34566136,0.
 00928596,0.,-0.00831301,-0.00150656,0.,0.36533604,0.01386223,-0.059219
 29,0.,0.02613938,0.00245207,0.,-0.00804897,0.05475455,0.,0.,-0.0312127
 4,0.,0.,0.00222142,0.,0.,0.02128502,-0.22671232,-0.17248032,0.,0.01187
 524,0.01405777,0.,-0.01293294,-0.02951425,0.,0.65353646,-0.18774108,-0
 .41115552,0.,-0.01606329,-0.02218445,0.,0.00347422,0.00458295,0.,0.078
 92434,0.80154287,0.,0.,-0.04910653,0.,0.,0.00459565,0.,0.,0.00413316,0
 .,0.,0.13202649,0.01131355,-0.01760480,0.,-0.00122575,-0.00332327,0.,0
 .00109623,0.00010302,0.,-0.11913107,0.11269079,0.,0.12499556,0.0143243
 4,-0.02261743,0.,-0.00303569,-0.00269330,0.,-0.00027460,0.00129167,0.,
 0.11139877,-0.26639059,0.,-0.12021562,0.28698636,0.,0.,0.00513465,0.,0
 .,0.01112733,0.,0.,-0.00699006,0.,0.,-0.04171509,0.,0.,0.02738101,-0.0
 3652950,-0.02752881,0.,0.00138277,0.00246571,0.,0.00089819,-0.00068228
 ,0.,-0.26270002,0.02429339,0.,-0.01362774,-0.00093903,0.,0.65662816,-0
 .04153847,-0.00518164,0.,-0.00151265,0.00144308,0.,-0.00301627,-0.0045
 2886,0.,0.02210702,-0.09902199,0.,0.02936492,0.00112324,0.,0.06312655,
 0.77321461,0.,0.,0.00638138,0.,0.,-0.00747045,0.,0.,0.01181678,0.,0.,-
 0.06161860,0.,0.,0.00296732,0.,0.,0.12931670,0.00161329,0.00133387,0.,
 0.00001583,-0.00135149,0.,0.00034492,-0.00041864,0.,-0.01307052,0.0291
 3347,0.,-0.00524338,-0.00060755,0.,-0.12008374,0.11258686,0.,0.1257118
 1,-0.00086077,0.00121396,0.,0.00054656,0.00028457,0.,0.00009522,0.0001
 9796,0.,-0.00129374,0.00144272,0.,-0.00078558,0.00064269,0.,0.11111872
 ,-0.26491036,0.,-0.12116753,0.28523853,0.,0.,-0.00151798,0.,0.,0.00029
 380,0.,0.,-0.00027891,0.,0.,0.00290649,0.,0.,0.00358604,0.,0.,-0.03936
 157,0.,0.,0.02543718,0.00178496,0.01178319,0.,0.00011094,-0.00054417,0
 .,-0.00071609,-0.00128144,0.,-0.04333533,-0.04440782,0.,0.00161449,-0.
 00116837,0.,-0.19386198,-0.14719411,0.,0.01112163,0.01470454,0.,0.6602
 4455,0.00884277,0.00807632,0.,-0.00004585,0.00019625,0.,0.00032070,0.0
 0088260,0.,-0.02601015,-0.00526968,0.,0.00194560,0.00091664,0.,-0.1502
 9309,-0.38323330,0.,-0.01562093,-0.02320479,0.,0.06064798,0.77196879,0
 .,0.,0.00247293,0.,0.,-0.00005670,0.,0.,0.00020004,0.,0.,0.00454861,0.
 ,0.,-0.00160369,0.,0.,-0.05296349,0.,0.,0.00485184,0.,0.,0.13023060,0.
 00010213,0.00000455,0.,-0.00013838,0.00013466,0.,0.00000042,0.00009401
 ,0.,0.00112274,-0.00178422,0.,0.00001233,0.00051474,0.,0.01105985,-0.0
 1545513,0.,-0.00147723,-0.00289405,0.,-0.12074403,0.11236722,0.,0.1268
 7083,-0.00046925,0.00032153,0.,0.00015113,0.00024804,0.,-0.00007276,-0
 .00000232,0.,0.00239388,0.00106582,0.,-0.00143078,0.00044100,0.,0.0147
 6487,-0.02342235,0.,-0.00289425,-0.00297908,0.,0.11117565,-0.26315986,
 0.,-0.12121035,0.28380586,0.,0.,0.00010000,0.,0.,0.00033265,0.,0.,0.00
 015837,0.,0.,-0.00621731,0.,0.,0.00022466,0.,0.,0.00486115,0.,0.,0.009
 41334,0.,0.,-0.04025111,0.,0.,0.02621859,-0.00392007,-0.00573558,0.,-0
 .00006033,0.00007736,0.,0.00008988,-0.00009832,0.,0.01449198,0.0057404
 3,0.,-0.00002513,-0.00002631,0.,-0.04558451,-0.02919725,0.,0.00115294,
 0.00239638,0.,-0.26962723,0.02446525,0.,-0.01355542,-0.00097363,0.,0.6
 5535624,-0.00406408,-0.00175085,0.,0.00007963,0.00004638,0.,-0.0002412
 5,-0.00046762,0.,0.00626335,-0.00307871,0.,-0.00051599,0.00051553,0.,-
 0.04572920,-0.00672655,0.,-0.00167110,0.00115017,0.,0.02529514,-0.0968
 9831,0.,0.02897183,0.00141345,0.,0.05632326,0.77732570,0.,0.,-0.000017
 89,0.,0.,0.00035545,0.,0.,-0.00149357,0.,0.,0.01161137,0.,0.,-0.000198
 89,0.,0.,0.00477999,0.,0.,-0.00614281,0.,0.,-0.05851032,0.,0.,0.002965
 84,0.,0.,0.13098583,-0.00007188,-0.00007177,0.,-0.00003855,-0.00004898
 ,0.,0.00001014,-0.00000424,0.,0.00000560,-0.00048610,0.,0.00029637,-0.
 00012554,0.,0.00158072,0.00189467,0.,0.00000440,-0.00141136,0.,-0.0135
 8404,0.02931520,0.,-0.00512854,-0.00068051,0.,-0.11992824,0.11145095,0
 .,0.12704176,0.00012130,-0.00006882,0.,0.00000091,-0.00000017,0.,0.000
 01575,0.00001718,0.,-0.00004283,0.00046273,0.,-0.00011860,-0.00015389,
 0.,-0.00121886,0.00095283,0.,0.00047809,0.00040355,0.,-0.00092515,0.00
 131397,0.,-0.00066829,0.00056372,0.,0.11146033,-0.26579699,0.,-0.12200
 660,0.28613082,0.,0.,-0.00003025,0.,0.,0.00001337,0.,0.,0.00001569,0.,
 0.,-0.00023203,0.,0.,0.00009148,0.,0.,-0.00181476,0.,0.,0.00029519,0.,
 0.,0.00327590,0.,0.,0.00392185,0.,0.,-0.04182680,0.,0.,0.02538280,0.00
 107785,0.00298052,0.,0.00006356,-0.00005299,0.,-0.00014958,-0.00011664
 ,0.,-0.00590275,-0.00472955,0.,-0.00004086,0.00010508,0.,0.00591693,0.
 01298008,0.,0.00014633,-0.00053960,0.,-0.04640245,-0.04621410,0.,0.001
 45896,-0.00140452,0.,-0.18856592,-0.14610867,0.,0.01351360,0.01503497,
 0.,0.64180652,0.00196839,0.00268121,0.,0.00005117,-0.00005203,0.,-0.00
 003182,0.00005578,0.,-0.00590485,-0.00198983,0.,-0.00008824,-0.0000354
 3,0.,0.01305721,0.01022417,0.,-0.00004284,0.00021925,0.,-0.03202848,-0
 .00948916,0.,0.00194827,0.00111319,0.,-0.14451667,-0.38371843,0.,-0.01
 490316,-0.02307333,0.,0.06371269,0.76206903,0.,0.,-0.00011935,0.,0.,0.
 00002230,0.,0.,-0.00002760,0.,0.,0.00003622,0.,0.,-0.00002609,0.,0.,0.
 00302368,0.,0.,0.00009850,0.,0.,0.00557929,0.,0.,-0.00185311,0.,0.,-0.
 05514619,0.,0.,0.00545560,0.,0.,0.12799834,0.00008474,0.00004563,0.,0.
 00000269,0.00000446,0.,0.00000766,0.00000732,0.,-0.00011004,0.00009238
 ,0.,-0.00003109,-0.00000374,0.,0.00024305,-0.00007090,0.,-0.00016728,0
 .00012493,0.,0.00085950,-0.00215157,0.,0.00010548,0.00050338,0.,0.0111
 1297,-0.01510972,0.,-0.00139163,-0.00286053,0.,-0.12749674,0.11735440,
 0.,0.13674301,-0.00002804,-0.00001814,0.,0.00000479,0.00001142,0.,-0.0
 0000412,-0.00000498,0.,0.00003238,0.00001046,0.,-0.00005914,0.00000335
 ,0.,-0.00056278,0.00030323,0.,0.00014236,0.00028401,0.,0.00252491,0.00
 110456,0.,-0.00151551,0.00041580,0.,0.01548098,-0.02518505,0.,-0.00318
 675,-0.00311433,0.,0.11755763,-0.25871665,0.,-0.12492685,0.27879451,0.
 ,0.,0.00001767,0.,0.,0.00001596,0.,0.,-0.00008945,0.,0.,0.00030727,0.,
 0.,0.00000962,0.,0.,-0.00004858,0.,0.,0.00037354,0.,0.,-0.00690236,0.,
 0.,0.00025901,0.,0.,0.00520603,0.,0.,0.01031773,0.,0.,-0.03840763,0.,0
 .,0.02503770,-0.00088124,-0.00179397,0.,-0.00003424,0.00004050,0.,0.00
 006906,0.00002325,0.,0.00353014,0.00200815,0.,0.00005156,-0.00003185,0
 .,-0.00645012,-0.00652950,0.,-0.00007146,0.00006077,0.,0.01650727,0.00
 640661,0.,0.00027528,0.00019494,0.,-0.04243545,-0.02834540,0.,-0.00063
 434,0.00138084,0.,-0.24235708,0.01243259,0.,-0.01515853,-0.00454558,0.
 ,0.67014684,0.00066960,0.00048333,0.,-0.00000021,-0.00000786,0.,0.0000
 1599,0.00001410,0.,-0.00155902,-0.00048505,0.,0.00005620,-0.00006625,0
 .,0.00078458,0.00190291,0.,0.00012112,-0.00000573,0.,-0.00436703,-0.00
 567747,0.,-0.00033446,0.00016712,0.,-0.02409680,0.00848576,0.,0.000806
 47,0.00105767,0.,-0.03499019,-0.11358206,0.,0.02899813,0.00398724,0.,-
 0.10178707,0.75966467,0.,0.,-0.00002316,0.,0.,-0.00010604,0.,0.,0.0002
 8334,0.,0.,-0.00138395,0.,0.,0.00001490,0.,0.,0.00032409,0.,0.,0.00003
 190,0.,0.,0.01012946,0.,0.,-0.00021438,0.,0.,0.00463591,0.,0.,-0.00586
 606,0.,0.,-0.05932843,0.,0.,0.00300936,0.,0.,0.13011373,-0.00014570,-0
 .00001150,0.,0.00000575,-0.00000063,0.,-0.00002122,-0.00002278,0.,0.00
 014482,-0.00017058,0.,-0.00001009,0.00001899,0.,-0.00062075,0.00009991
 ,0.,0.00001265,-0.00000698,0.,0.00030939,-0.00138268,0.,-0.00003638,0.
 00006573,0.,-0.00594926,0.00203846,0.,0.00018440,-0.00008380,0.,-0.010
 76879,-0.03171984,0.,0.00092506,0.00016828,0.,-0.08999371,-0.08784728,
 0.,0.09741709,-0.00008701,0.00000865,0.,0.00000428,0.00000144,0.,-0.00
 001508,-0.00001007,0.,0.00007884,-0.00009841,0.,-0.00001332,0.00001810
 ,0.,-0.00012891,0.00010614,0.,0.00001016,0.00001075,0.,0.00012700,-0.0
 0027089,0.,-0.00006017,0.00002210,0.,-0.00035909,0.00140081,0.,0.00022
 076,0.00014027,0.,0.00171540,-0.00124737,0.,-0.00020255,0.00117188,0.,
 -0.08802490,-0.29734605,0.,0.09192593,0.31925686,0.,0.,0.00001090,0.,0
 .,0.00000410,0.,0.,-0.00000128,0.,0.,-0.00000144,0.,0.,0.00000100,0.,0
 .,-0.00019177,0.,0.,0.00000966,0.,0.,0.00006195,0.,0.,0.00004078,0.,0.
 ,0.00245020,0.,0.,-0.00012404,0.,0.,0.00293373,0.,0.,-0.00100163,0.,0.
 ,-0.04085083,0.,0.,0.02708051,-0.00001534,0.00061513,0.,0.00002009,-0.
 00001992,0.,-0.00005405,-0.00003848,0.,-0.00084292,-0.00093310,0.,-0.0
 0004380,0.00005794,0.,0.00180044,0.00230240,0.,0.00000432,-0.00007059,
 0.,-0.00426950,-0.00220594,0.,-0.00002905,-0.00010140,0.,0.00748546,0.
 01017501,0.,-0.00045322,-0.00023522,0.,-0.04305776,0.01628028,0.,-0.00
 495759,-0.00073729,0.,-0.28758987,0.20873917,0.,0.00968580,-0.00879443
 ,0.,0.73476323,-0.00059002,-0.00063331,0.,-0.00001053,0.00000646,0.,0.
 00000696,-0.00001988,0.,0.00156828,0.00048035,0.,-0.00000094,0.0000240
 8,0.,-0.00267484,-0.00211952,0.,-0.00006644,-0.00003939,0.,0.00553398,
 0.00154863,0.,0.00021383,-0.00001080,0.,-0.01113841,-0.00529472,0.,-0.
 00085691,-0.00038345,0.,0.02061579,0.01775814,0.,-0.00305957,0.0008141
 3,0.,0.19015805,-0.34585655,0.,0.02335286,-0.02288716,0.,-0.08996887,0
 .74658185,0.,0.,0.00002549,0.,0.,-0.00001257,0.,0.,-0.00002049,0.,0.,0
 .00011888,0.,0.,-0.00001436,0.,0.,0.00003189,0.,0.,-0.00007455,0.,0.,-
 0.00065017,0.,0.,-0.00000868,0.,0.,0.00063588,0.,0.,0.00033695,0.,0.,0
 .00638199,0.,0.,0.00190530,0.,0.,-0.04977902,0.,0.,0.00516231,0.,0.,0.
 10009044,0.00003136,0.00001312,0.,-0.00000268,0.00000028,0.,0.00000659
 ,0.00000443,0.,-0.00004295,0.00000203,0.,0.00000364,-0.00000173,0.,0.0
 0002704,0.00004543,0.,-0.00001386,-0.00001297,0.,-0.00005906,-0.000344
 71,0.,0.00009026,-0.00000570,0.,-0.00033439,0.00101654,0.,-0.00154598,
 -0.00033611,0.,0.00010798,-0.00106978,0.,0.00022029,-0.00020517,0.,0.0
 1245580,0.02149402,0.,-0.00226012,0.00336238,0.,-0.08058391,-0.0734585
 9,0.,0.07564508,0.00001605,0.00000037,0.,0.00000161,0.00000220,0.,-0.0
 0000406,0.00000025,0.,-0.00002153,0.00002008,0.,-0.00000311,-0.0000013
 1,0.,0.00011826,-0.00001356,0.,0.00001719,0.00002399,0.,-0.00003308,0.
 00063720,0.,-0.00018613,-0.00000575,0.,0.00033984,-0.00043723,0.,-0.00
 004382,0.00102064,0.,-0.00199175,0.00078590,0.,0.00012327,0.00009350,0
 .,-0.00795404,-0.02040809,0.,0.00340674,-0.00162282,0.,-0.07097353,-0.
 31845661,0.,0.07693900,0.34097329,0.,0.,-0.00001614,0.,0.,-0.00001450,
 0.,0.,0.00003651,0.,0.,-0.00012406,0.,0.,0.00000688,0.,0.,0.00004221,0
 .,0.,0.00001752,0.,0.,0.00007064,0.,0.,0.00001439,0.,0.,0.00023133,0.,
 0.,0.00106503,0.,0.,-0.00734533,0.,0.,-0.00013750,0.,0.,0.00500587,0.,
 0.,0.01218018,0.,0.,-0.03481107,0.,0.,0.02113531,-0.00006613,-0.000006
 24,0.,0.00000340,-0.00000089,0.,-0.00001089,-0.00000761,0.,0.00007390,
 -0.00004346,0.,-0.00000483,0.00001018,0.,-0.00007880,0.00000644,0.,-0.
 00000065,-0.00000395,0.,0.00004696,-0.00004233,0.,0.00001073,-0.000006
 41,0.,0.00029650,0.00017124,0.,0.00013944,0.00000380,0.,0.00065021,0.0
 0350069,0.,-0.00099154,-0.00014010,0.,-0.01742993,-0.00670320,0.,0.001
 12107,0.00024071,0.,-0.33186231,-0.05962464,0.,-0.00374508,0.00024910,
 0.,0.35184792,0.00002280,-0.00002472,0.,0.00000086,0.00000258,0.,0.000
 00069,0.00000392,0.,0.00000206,0.00006624,0.,-0.00000114,-0.00000446,0
 .,0.00002853,-0.00011210,0.,0.00001766,0.00002721,0.,0.00015727,0.0005
 5851,0.,-0.00014081,0.00000254,0.,-0.00014177,-0.00098333,0.,0.0001376
 9,0.00052758,0.,0.00144585,-0.00300238,0.,0.00113154,0.00004507,0.,0.0
 2630662,0.00767231,0.,0.00016916,0.00134579,0.,-0.06409117,-0.07151225
 ,0.,-0.02744247,-0.00261204,0.,0.06239665,0.06799954,0.,0.,-0.00000634
 ,0.,0.,0.00002890,0.,0.,-0.00003621,0.,0.,0.00011488,0.,0.,0.00000329,
 0.,0.,-0.00007596,0.,0.,0.00006084,0.,0.,-0.00048340,0.,0.,0.00003398,
 0.,0.,-0.00052135,0.,0.,-0.00027768,0.,0.,0.01072409,0.,0.,0.00012795,
 0.,0.,0.00400330,0.,0.,-0.00776434,0.,0.,-0.02931821,0.,0.,0.00264274,
 0.,0.,0.02074351\\-0.00000099,-0.00000106,0.,0.00001011,-0.00000225,0.
 ,0.00000669,0.00000302,0.,0.00003241,-0.00000949,0.,-0.00000207,0.0000
 0582,0.,-0.00004008,0.00002835,0.,0.00000933,-0.00001425,0.,0.00004184
 ,-0.00003220,0.,-0.00000950,0.00001295,0.,-0.00005411,0.00004704,0.,0.
 00002623,-0.00000740,0.,-0.00000929,-0.00004812,0.,0.00000799,0.000023
 43,0.,-0.00004217,0.00001353,0.,0.00000927,-0.00001064,0.,0.00001181,-
 0.00002157,0.,0.00000417,-0.00000027,0.,-0.00000164,0.00001310,0.\\\@


 THE MORE ACCURATE THE CALCULATIONS BECOME, THE MORE THE CONCEPTS
 TEND TO VANISH INTO THIN AIR.
     -- R.S. MULLIKEN, J.C.P. 43,S2(1965)
 Job cpu time:  0 days  0 hours  3 minutes 48.7 seconds.
 File lengths (MBytes):  RWF=     49 Int=      0 D2E=      0 Chk=      3 Scr=      1
 Normal termination of Gaussian 09 at Tue Mar  2 16:33:57 2021.
00000764,0.,0.00007622,-0.0000467
 1,0.,-0.00000551,0.00001372,0.,-0.00007791,0.00000741,0.,0.00000176,-0
 .00000007,0.,0.00004384,-0.00002850,0.,0.00000210,0.00000017,0.,0.0003
 7299,0.00015845,0.,0.00017783,0.00006799,0.,0.00079240,0.00327438,0.,-
 0.00097307,-0.00009026,0.,-0.01750968,-0.00876930,0.,0.00116735,0.0003
 8074,0.,-0.33352088,-0.05674459,0.,-0.00454166,0.00181778,0.,0.3540723
 4,0.00001938,-0.00002216,0.,0.00000101,0.00000203,0.,0.00000044,0.0000
 0319,0.,0.00000450,0.00006030,0.,-0.00000060,-0.00000477,0.,0.00002807
 ,-0.00009827,0.,0.00001717,0.00002430,0.,0.00014489,0.00051165,0.,-0.0
 0013279,0.00000221,0.,-0.00013346,-0.00085178,0.,0.00013982,0.00050163
 ,0.,0.00133626,-0.00293475,0.,0.00103042,0.00000313,0.,0.02867594,0.00
 632566,0.,0.00005086,0.00139406,0.,-0.06287751,-0.07032466,0.,-0.02828
 051,-0.00326320,0.,0.05997612,0.06867143,0.,0.,-0.00001015,0.,0.,0.000
 02972,0.,0.,-0.00003503,0.,0.,0.00011496,0.,0.,0.00000403,0.,0.,-0.000
 06962,0.,0.,0.00005491,0.,0.,-0.00054679,0.,0.,0.00003156,0.,0.,-0.000
 47127,0.,0.,-0.00025624,0.,0.,0.01080040,0.,0.,0.00008404,0.,0.,0.0051
 9206,0.,0.,-0.00797556,0.,0.,-0.03229442,0.,0.,0.00349800,0.,0.,0.0218
 4940\\-0.00001738,-0.00001799,0.,0.00001438,0.00000102,0.,0.00000730,0
 .00000642,0.,0.00003642,-0.00000132,0.,-0.00000243,0.00000541,0.,-0.00
 004208,0.00002297,0.,0.00000776,-0.00001642,0.,0.00004458,-0.00002328,
 0.,-0.00000803,0.00001173,0.,-0.00004597,0.00005032,0.,0.00002098,-0.0
 0001127,0.,-0.00002704,-0.00004990,0.,0.00001116,0.00002071,0.,-0.0000
 0683,0.00000754,0.,-0.00000049,-0.00000052,0.,0.00001135,-0.00002022,0
 .,-0.00000268,0.00000304,0.,-0.00000100,0.00001176,0.\\\@


 OLD HORSE! OLD HORSE! WHAT BROUGHT YOU HERE?
 FROM SACARAP' TO PORTLAND PIER
 I'VE CARTED STONE THIS MANY A YEAR;
 TILL, KILLED BY BLOWS AND SORE ABUSE,
 THEY SALTED ME DOWN FOR SAILORS' USE.
 THE SAILORS THEY DO ME DESPISE;
 THEY TURN ME OVER AND DAMN MY EYES;
 CUT OFF MY MEAT, AND SCRAPE MY BONES,
 AND PITCH ME OVER TO DAVY JONES.

    SAILORS' COMPLAINT ABOUT THE BEEF
    SERVED ON SHIPBOARD, CIRCA 1835.
 Job cpu time:  0 days  0 hours  1 minutes 26.5 seconds.
 File lengths (MBytes):  RWF=     27 Int=      0 D2E=      0 Chk=      3 Scr=      1
 Normal termination of Gaussian 09 at Tue Mar  2 16:16:31 2021.
