 Entering Gaussian System, Link 0=g09
 Input=2.com
 Output=2.log
 Initial command:
 /home/student/g09/l1.exe /home/student/singh/octa/Gau-23517.inp -scrdir=/home/student/singh/octa/
 Entering Link 1 = /home/student/g09/l1.exe PID=     23519.
  
 Copyright (c) 1988,1990,1992,1993,1995,1998,2003,2009,2011,
            Gaussian, Inc.  All Rights Reserved.
  
 This is part of the Gaussian(R) 09 program.  It is based on
 the Gaussian(R) 03 system (copyright 2003, Gaussian, Inc.),
 the Gaussian(R) 98 system (copyright 1998, Gaussian, Inc.),
 the Gaussian(R) 94 system (copyright 1995, Gaussian, Inc.),
 the Gaussian 92(TM) system (copyright 1992, Gaussian, Inc.),
 the Gaussian 90(TM) system (copyright 1990, Gaussian, Inc.),
 the Gaussian 88(TM) system (copyright 1988, Gaussian, Inc.),
 the Gaussian 86(TM) system (copyright 1986, Carnegie Mellon
 University), and the Gaussian 82(TM) system (copyright 1983,
 Carnegie Mellon University). Gaussian is a federally registered
 trademark of Gaussian, Inc.
  
 This software contains proprietary and confidential information,
 including trade secrets, belonging to Gaussian, Inc.
  
 This software is provided under written license and may be
 used, copied, transmitted, or stored only in accord with that
 written license.
  
 The following legend is applicable only to US Government
 contracts under FAR:
  
                    RESTRICTED RIGHTS LEGEND
  
 Use, reproduction and disclosure by the US Government is
 subject to restrictions as set forth in subparagraphs (a)
 and (c) of the Commercial Computer Software - Restricted
 Rights clause in FAR 52.227-19.
  
 Gaussian, Inc.
 340 Quinnipiac St., Bldg. 40, Wallingford CT 06492
  
  
 ---------------------------------------------------------------
 Warning -- This program may not be used in any manner that
 competes with the business of Gaussian, Inc. or will provide
 assistance to any competitor of Gaussian, Inc.  The licensee
 of this program is prohibited from giving any competitor of
 Gaussian, Inc. access to this program.  By using this program,
 the user acknowledges that Gaussian, Inc. is engaged in the
 business of creating and licensing software in the field of
 computational chemistry and represents and warrants to the
 licensee that it is not a competitor of Gaussian, Inc. and that
 it will not use this program in any manner prohibited above.
 ---------------------------------------------------------------
  

 Cite this work as:
 Gaussian 09, Revision C.01,
 M. J. Frisch, G. W. Trucks, H. B. Schlegel, G. E. Scuseria, 
 M. A. Robb, J. R. Cheeseman, G. Scalmani, V. Barone, B. Mennucci, 
 G. A. Petersson, H. Nakatsuji, M. Caricato, X. Li, H. P. Hratchian, 
 A. F. Izmaylov, J. Bloino, G. Zheng, J. L. Sonnenberg, M. Hada, 
 M. Ehara, K. Toyota, R. Fukuda, J. Hasegawa, M. Ishida, T. Nakajima, 
 Y. Honda, O. Kitao, H. Nakai, T. Vreven, J. A. Montgomery, Jr., 
 J. E. Peralta, F. Ogliaro, M. Bearpark, J. J. Heyd, E. Brothers, 
 K. N. Kudin, V. N. Staroverov, T. Keith, R. Kobayashi, J. Normand, 
 K. Raghavachari, A. Rendell, J. C. Burant, S. S. Iyengar, J. Tomasi, 
 M. Cossi, N. Rega, J. M. Millam, M. Klene, J. E. Knox, J. B. Cross, 
 V. Bakken, C. Adamo, J. Jaramillo, R. Gomperts, R. E. Stratmann, 
 O. Yazyev, A. J. Austin, R. Cammi, C. Pomelli, J. W. Ochterski, 
 R. L. Martin, K. Morokuma, V. G. Zakrzewski, G. A. Voth, 
 P. Salvador, J. J. Dannenberg, S. Dapprich, A. D. Daniels, 
 O. Farkas, J. B. Foresman, J. V. Ortiz, J. Cioslowski, 
 and D. J. Fox, Gaussian, Inc., Wallingford CT, 2010.
 
 ******************************************
 Gaussian 09:  EM64L-G09RevC.01 23-Sep-2011
                 2-Mar-2021 
 ******************************************
 %chk=2.chk
 -----------------------------------------
 # opt freq b3lyp/6-31g* geom=connectivity
 -----------------------------------------
 1/14=-1,18=20,19=15,26=3,38=1,57=2/1,3;
 2/9=110,12=2,17=6,18=5,40=1/2;
 3/5=1,6=6,7=1,11=2,16=1,25=1,30=1,71=1,74=-5/1,2,3;
 4//1;
 5/5=2,38=5/2;
 6/7=2,8=2,9=2,10=2,28=1/1;
 7//1,2,3,16;
 1/14=-1,18=20,19=15/3(2);
 2/9=110/2;
 99//99;
 2/9=110/2;
 3/5=1,6=6,7=1,11=2,16=1,25=1,30=1,71=1,74=-5/1,2,3;
 4/5=5,16=3/1;
 5/5=2,38=5/2;
 7//1,2,3,16;
 1/14=-1,18=20,19=15/3(-5);
 2/9=110/2;
 6/7=2,8=2,9=2,10=2,19=2,28=1/1;
 99/9=1/99;
 -------------------
 Title Card Required
 -------------------
 Charge =  0 Multiplicity = 1
 Symbolic Z-Matrix:
 C                    -6.67037   0.51296   0. 
 H                    -6.53184   1.57395   0. 
 H                    -7.65929   0.10439   0. 
 C                    -5.59761  -0.31514   0. 
 H                    -5.73614  -1.37613   0. 
 C                    -4.1743    0.2729    0. 
 H                    -4.03577   1.33389   0. 
 C                    -3.09663  -0.54882   0. 
 H                    -3.22886  -1.61061   0. 
 C                    -1.55666  -0.55796   0. 
 H                    -1.02902  -1.48882   0. 
 C                    -0.86747   0.60891   0. 
 H                    -1.38958   1.54288   0. 
 C                     0.67242   0.59061   0. 
 H                     0.8201    1.65037   0. 
 C                     1.74295  -0.24037   0. 
 H                     1.60157  -1.30099  0. 
 H                     2.73297   0.16554   0. 
 

 GradGradGradGradGradGradGradGradGradGradGradGradGradGradGradGradGradGrad
 Berny optimization.
 Initialization pass.
                           ----------------------------
                           !    Initial Parameters    !
                           ! (Angstroms and Degrees)  !
 --------------------------                            --------------------------
 ! Name  Definition              Value          Derivative Info.                !
 --------------------------------------------------------------------------------
 ! R1    R(1,2)                  1.07           estimate D2E/DX2                !
 ! R2    R(1,3)                  1.07           estimate D2E/DX2                !
 ! R3    R(1,4)                  1.3552         estimate D2E/DX2                !
 ! R4    R(4,5)                  1.07           estimate D2E/DX2                !
 ! R5    R(4,6)                  1.54           estimate D2E/DX2                !
 ! R6    R(6,7)                  1.07           estimate D2E/DX2                !
 ! R7    R(6,8)                  1.3552         estimate D2E/DX2                !
 ! R8    R(8,9)                  1.07           estimate D2E/DX2                !
 ! R9    R(8,10)                 1.54           estimate D2E/DX2                !
 ! R10   R(10,11)                1.07           estimate D2E/DX2                !
 ! R11   R(10,12)                1.3552         estimate D2E/DX2                !
 ! R12   R(12,13)                1.07           estimate D2E/DX2                !
 ! R13   R(12,14)                1.54           estimate D2E/DX2                !
 ! R14   R(14,15)                1.07           estimate D2E/DX2                !
 ! R15   R(14,16)                1.3552         estimate D2E/DX2                !
 ! R16   R(16,17)                1.07           estimate D2E/DX2                !
 ! R17   R(16,18)                1.07           estimate D2E/DX2                !
 ! A1    A(2,1,3)              119.8865         estimate D2E/DX2                !
 ! A2    A(2,1,4)              120.2269         estimate D2E/DX2                !
 ! A3    A(3,1,4)              119.8865         estimate D2E/DX2                !
 ! A4    A(1,4,5)              120.2269         estimate D2E/DX2                !
 ! A5    A(1,4,6)              119.8865         estimate D2E/DX2                !
 ! A6    A(5,4,6)              119.8865         estimate D2E/DX2                !
 ! A7    A(4,6,7)              119.8865         estimate D2E/DX2                !
 ! A8    A(4,6,8)              120.2269         estimate D2E/DX2                !
 ! A9    A(7,6,8)              119.8865         estimate D2E/DX2                !
 ! A10   A(6,8,9)              120.2269         estimate D2E/DX2                !
 ! A11   A(6,8,10)             143.0151         estimate D2E/DX2                !
 ! A12   A(9,8,10)              96.7579         estimate D2E/DX2                !
 ! A13   A(8,10,11)            119.8865         estimate D2E/DX2                !
 ! A14   A(8,10,12)            120.2269         estimate D2E/DX2                !
 ! A15   A(11,10,12)           119.8865         estimate D2E/DX2                !
 ! A16   A(10,12,13)           120.2269         estimate D2E/DX2                !
 ! A17   A(10,12,14)           119.8865         estimate D2E/DX2                !
 ! A18   A(13,12,14)           119.8865         estimate D2E/DX2                !
 ! A19   A(12,14,15)            97.2523         estimate D2E/DX2                !
 ! A20   A(12,14,16)           142.8611         estimate D2E/DX2                !
 ! A21   A(15,14,16)           119.8865         estimate D2E/DX2                !
 ! A22   A(14,16,17)           120.2269         estimate D2E/DX2                !
 ! A23   A(14,16,18)           119.8865         estimate D2E/DX2                !
 ! A24   A(17,16,18)           119.8865         estimate D2E/DX2                !
 ! D1    D(2,1,4,5)            180.0            estimate D2E/DX2                !
 ! D2    D(2,1,4,6)              0.0            estimate D2E/DX2                !
 ! D3    D(3,1,4,5)              0.0            estimate D2E/DX2                !
 ! D4    D(3,1,4,6)            180.0            estimate D2E/DX2                !
 ! D5    D(1,4,6,7)              0.0            estimate D2E/DX2                !
 ! D6    D(1,4,6,8)            180.0            estimate D2E/DX2                !
 ! D7    D(5,4,6,7)            180.0            estimate D2E/DX2                !
 ! D8    D(5,4,6,8)              0.0            estimate D2E/DX2                !
 ! D9    D(4,6,8,9)              0.0            estimate D2E/DX2                !
 ! D10   D(4,6,8,10)           180.0            estimate D2E/DX2                !
 ! D11   D(7,6,8,9)            180.0            estimate D2E/DX2                !
 ! D12   D(7,6,8,10)             0.0            estimate D2E/DX2                !
 ! D13   D(6,8,10,11)          180.0            estimate D2E/DX2                !
 ! D14   D(6,8,10,12)            0.0            estimate D2E/DX2                !
 ! D15   D(9,8,10,11)            0.0            estimate D2E/DX2                !
 ! D16   D(9,8,10,12)          180.0            estimate D2E/DX2                !
 ! D17   D(8,10,12,13)           0.0            estimate D2E/DX2                !
 ! D18   D(8,10,12,14)         180.0            estimate D2E/DX2                !
 ! D19   D(11,10,12,13)        180.0            estimate D2E/DX2                !
 ! D20   D(11,10,12,14)          0.0            estimate D2E/DX2                !
 ! D21   D(10,12,14,15)        180.0            estimate D2E/DX2                !
 ! D22   D(10,12,14,16)          0.0            estimate D2E/DX2                !
 ! D23   D(13,12,14,15)          0.0            estimate D2E/DX2                !
 ! D24   D(13,12,14,16)        180.0            estimate D2E/DX2                !
 ! D25   D(12,14,16,17)          0.0            estimate D2E/DX2                !
 ! D26   D(12,14,16,18)       -180.0            estimate D2E/DX2                !
 ! D27   D(15,14,16,17)       -180.0            estimate D2E/DX2                !
 ! D28   D(15,14,16,18)          0.0            estimate D2E/DX2                !
 --------------------------------------------------------------------------------
 Trust Radius=3.00D-01 FncErr=1.00D-07 GrdErr=1.00D-06
 Number of steps in this run=     79 maximum allowed number of steps=    108.
 GradGradGradGradGradGradGradGradGradGradGradGradGradGradGradGradGradGrad

                          Input orientation:                          
 ---------------------------------------------------------------------
 Center     Atomic      Atomic             Coordinates (Angstroms)
 Number     Number       Type             X           Y           Z
 ---------------------------------------------------------------------
      1          6           0       -6.670371    0.512959    0.000000
      2          1           0       -6.531842    1.573954    0.000000
      3          1           0       -7.659295    0.104389    0.000000
      4          6           0       -5.597609   -0.315140    0.000000
      5          1           0       -5.736138   -1.376135    0.000000
      6          6           0       -4.174298    0.272896    0.000000
      7          1           0       -4.035769    1.333891    0.000000
      8          6           0       -3.096635   -0.548815    0.000000
      9          1           0       -3.228857   -1.610614    0.000000
     10          6           0       -1.556662   -0.557965    0.000000
     11          1           0       -1.029019   -1.488821    0.000000
     12          6           0       -0.867473    0.608906    0.000000
     13          1           0       -1.389576    1.542880    0.000000
     14          6           0        0.672418    0.590606    0.000000
     15          1           0        0.820097    1.650366    0.000000
     16          6           0        1.742950   -0.240373    0.000000
     17          1           0        1.601570   -1.300992    0.000000
     18          1           0        2.732969    0.165537    0.000000
 ---------------------------------------------------------------------
                    Distance matrix (angstroms):
                    1          2          3          4          5
     1  C    0.000000
     2  H    1.070000   0.000000
     3  H    1.070000   1.852234   0.000000
     4  C    1.355200   2.107479   2.103938   0.000000
     5  H    2.107479   3.055514   2.427032   1.070000   0.000000
     6  C    2.507591   2.692725   3.489068   1.540000   2.271265
     7  H    2.759539   2.507591   3.826436   2.271265   3.199295
     8  C    3.728131   4.038168   4.609181   2.511867   2.766123
     9  H    4.043956   4.588157   4.750791   2.699859   2.518221
    10  C    5.224644   5.412717   6.138473   4.048236   4.258805
    11  H    5.985982   6.297750   6.819008   4.716942   4.708467
    12  C    5.803691   5.745989   6.810534   4.819548   5.257782
    13  H    5.380291   5.142360   6.432623   4.599976   5.235766
    14  C    7.343200   7.271062   8.345888   6.335110   6.703555
    15  H    7.576332   7.352337   8.619172   6.711942   7.221075
    16  C    8.446981   8.471362   9.408564   7.340940   7.564834
    17  H    8.468497   8.626570   9.366895   7.266367   7.338093
    18  H    9.409756   9.371252  10.392444   8.344434   8.608282
                    6          7          8          9         10
     6  C    0.000000
     7  H    1.070000   0.000000
     8  C    1.355200   2.103938   0.000000
     9  H    2.107479   3.053066   1.070000   0.000000
    10  C    2.746334   3.118508   1.540000   1.975932   0.000000
    11  H    3.605055   4.124105   2.271265   2.203207   1.070000
    12  C    3.323852   3.250185   2.511867   3.240741   1.355200
    13  H    3.060643   2.654433   2.699859   3.650682   2.107479
    14  C    4.857118   4.766497   3.937517   4.479433   2.507591
    15  H    5.180869   4.866168   4.491902   5.198848   3.244335
    16  C    5.939467   5.989316   4.849404   5.157173   3.314861
    17  H    5.986466   6.222717   4.758035   4.840340   3.244460
    18  H    6.908101   6.868833   5.873208   6.220778   4.350217
                   11         12         13         14         15
    11  H    0.000000
    12  C    2.103938   0.000000
    13  H    3.053066   1.070000   0.000000
    14  C    2.686802   1.540000   2.271265   0.000000
    15  H    3.643313   1.983062   2.212286   1.070000   0.000000
    16  C    3.040138   2.745102   3.604541   1.355200   2.103938
    17  H    2.637287   3.121520   4.127295   2.107479   3.053066
    18  H    4.109678   3.627638   4.346545   2.103938   2.421527
                   16         17         18
    16  C    0.000000
    17  H    1.070000   0.000000
    18  H    1.070000   1.852234   0.000000
 Stoichiometry    C8H10
 Framework group  CS[SG(C8H10)]
 Deg. of freedom    33
 Full point group                 CS      NOp   2
 Largest Abelian subgroup         CS      NOp   2
 Largest concise Abelian subgroup C1      NOp   1
                         Standard orientation:                         
 ---------------------------------------------------------------------
 Center     Atomic      Atomic             Coordinates (Angstroms)
 Number     Number       Type             X           Y           Z
 ---------------------------------------------------------------------
      1          6           0       -3.188022    2.814325    0.000000
      2          1           0       -3.880579    1.998687    0.000000
      3          1           0       -3.550102    3.821200    0.000000
      4          6           0       -1.853855    2.576492    0.000000
      5          1           0       -1.161299    3.392130    0.000000
      6          6           0       -1.332731    1.127344    0.000000
      7          1           0       -2.025287    0.311706    0.000000
      8          6           0        0.000000    0.881588    0.000000
      9          1           0        0.697390    1.693097    0.000000
     10          6           0        1.041739   -0.252598    0.000000
     11          1           0        2.085641   -0.017716    0.000000
     12          6           0        0.640863   -1.547151    0.000000
     13          1           0       -0.401625   -1.788231    0.000000
     14          6           0        1.689322   -2.675128    0.000000
     15          1           0        1.003830   -3.496712    0.000000
     16          6           0        3.024124   -2.909374    0.000000
     17          1           0        3.714485   -2.091877    0.000000
     18          1           0        3.388909   -3.915273    0.000000
 ---------------------------------------------------------------------
 Rotational constants (GHZ):     12.7430780      0.5899453      0.5638420
 Standard basis: 6-31G(d) (6D, 7F)
 There are   108 symmetry adapted basis functions of A'  symmetry.
 There are    32 symmetry adapted basis functions of A"  symmetry.
 Integral buffers will be    131072 words long.
 Raffenetti 2 integral format.
 Two-electron integral symmetry is turned on.
   140 basis functions,   264 primitive gaussians,   140 cartesian basis functions
    29 alpha electrons       29 beta electrons
       nuclear repulsion energy       294.0941231333 Hartrees.
 NAtoms=   18 NActive=   18 NUniq=   18 SFac= 1.00D+00 NAtFMM=   60 NAOKFM=F Big=F
 One-electron integrals computed using PRISM.
 NBasis=   140 RedAO= T  NBF=   108    32
 NBsUse=   140 1.00D-06 NBFU=   108    32
 Harris functional with IExCor=  402 diagonalized for initial guess.
 ExpMin= 1.61D-01 ExpMax= 3.05D+03 ExpMxC= 4.57D+02 IAcc=1 IRadAn=         1 AccDes= 0.00D+00
 HarFok:  IExCor=  402 AccDes= 0.00D+00 IRadAn=         1 IDoV= 1
 ScaDFX=  1.000000  1.000000  1.000000  1.000000
 FoFCou: FMM=F IPFlag=           0 FMFlag=      100000 FMFlg1=           0
         NFxFlg=           0 DoJE=T BraDBF=F KetDBF=T FulRan=T
         Omega=  0.000000  0.000000  1.000000  0.000000  0.000000 ICntrl=     500 IOpCl=  0
         NMat0=    1 NMatS0=    1 NMatT0=    0 NMatD0=    1 NMtDS0=    0 NMtDT0=    0
         I1Cent=           4 NGrid=           0.
 Petite list used in FoFCou.
 Initial guess orbital symmetries:
       Occupied  (A') (A') (A') (A') (A') (A') (A') (A') (A') (A')
                 (A') (A') (A') (A') (A') (A') (A') (A') (A') (A')
                 (A') (A') (A') (A') (A") (A') (A") (A") (A")
       Virtual   (A") (A") (A") (A") (A') (A') (A') (A') (A') (A')
                 (A') (A') (A') (A') (A') (A') (A') (A') (A') (A')
                 (A') (A') (A') (A") (A') (A") (A') (A") (A') (A")
                 (A') (A') (A') (A") (A') (A") (A') (A") (A") (A')
                 (A') (A') (A') (A') (A') (A') (A') (A') (A') (A')
                 (A') (A') (A') (A') (A') (A') (A') (A') (A') (A")
                 (A') (A") (A') (A") (A') (A") (A") (A") (A') (A")
                 (A") (A') (A") (A') (A') (A') (A') (A") (A') (A')
                 (A') (A") (A') (A') (A") (A') (A') (A") (A') (A')
                 (A') (A") (A") (A') (A') (A") (A') (A') (A') (A')
                 (A') (A') (A') (A') (A') (A') (A') (A') (A') (A')
                 (A')
 The electronic state of the initial guess is 1-A'.
 Requested convergence on RMS density matrix=1.00D-08 within 128 cycles.
 Requested convergence on MAX density matrix=1.00D-06.
 Requested convergence on             energy=1.00D-06.
 No special actions if energy rises.
 Integral accuracy reduced to 1.0D-05 until final iterations.
 Initial convergence to 1.0D-05 achieved.  Increase integral accuracy.
 SCF Done:  E(RB3LYP) =  -310.746672018     A.U. after   14 cycles
             Convg  =    0.4029D-08             -V/T =  2.0108

 **********************************************************************

            Population analysis using the SCF density.

 **********************************************************************

 Orbital symmetries:
       Occupied  (A') (A') (A') (A') (A') (A') (A') (A') (A') (A')
                 (A') (A') (A') (A') (A') (A') (A') (A') (A') (A')
                 (A') (A') (A') (A') (A") (A') (A") (A") (A")
       Virtual   (A") (A") (A") (A') (A') (A") (A') (A') (A') (A')
                 (A') (A') (A') (A') (A') (A') (A') (A') (A') (A')
                 (A') (A') (A') (A") (A") (A') (A') (A") (A') (A")
                 (A') (A") (A') (A") (A') (A') (A') (A") (A") (A')
                 (A') (A') (A') (A') (A') (A') (A') (A') (A') (A')
                 (A') (A') (A') (A') (A') (A') (A') (A') (A') (A')
                 (A") (A') (A") (A") (A') (A") (A') (A") (A") (A")
                 (A") (A") (A') (A') (A') (A') (A") (A') (A') (A')
                 (A") (A') (A') (A') (A") (A') (A') (A") (A') (A')
                 (A') (A") (A") (A') (A") (A') (A') (A') (A') (A')
                 (A') (A') (A') (A') (A') (A') (A') (A') (A') (A')
                 (A')
 The electronic state is 1-A'.
 Alpha  occ. eigenvalues --  -10.20227 -10.20100 -10.20073 -10.19946 -10.19543
 Alpha  occ. eigenvalues --  -10.19457 -10.18590 -10.18162  -0.80903  -0.78531
 Alpha  occ. eigenvalues --   -0.74855  -0.71021  -0.63862  -0.57753  -0.56586
 Alpha  occ. eigenvalues --   -0.52991  -0.47824  -0.46518  -0.44137  -0.43715
 Alpha  occ. eigenvalues --   -0.40425  -0.38140  -0.37556  -0.35457  -0.33233
 Alpha  occ. eigenvalues --   -0.30563  -0.30261  -0.25605  -0.20568
 Alpha virt. eigenvalues --   -0.05832   0.01176   0.06438   0.09162   0.09960
 Alpha virt. eigenvalues --    0.11204   0.12881   0.12993   0.13770   0.16445
 Alpha virt. eigenvalues --    0.17527   0.19589   0.20946   0.21556   0.25109
 Alpha virt. eigenvalues --    0.29756   0.31806   0.33997   0.36838   0.38135
 Alpha virt. eigenvalues --    0.43022   0.46965   0.48302   0.52123   0.54186
 Alpha virt. eigenvalues --    0.55022   0.57277   0.57537   0.60728   0.61684
 Alpha virt. eigenvalues --    0.63164   0.64790   0.65018   0.65742   0.67274
 Alpha virt. eigenvalues --    0.67536   0.68348   0.69259   0.72612   0.83075
 Alpha virt. eigenvalues --    0.84569   0.85822   0.86584   0.87613   0.88354
 Alpha virt. eigenvalues --    0.89300   0.91060   0.91865   0.93268   0.95383
 Alpha virt. eigenvalues --    0.96796   0.97455   1.04273   1.06521   1.09141
 Alpha virt. eigenvalues --    1.09658   1.14916   1.19192   1.24588   1.27997
 Alpha virt. eigenvalues --    1.31161   1.32464   1.34860   1.37575   1.40347
 Alpha virt. eigenvalues --    1.47991   1.50843   1.51602   1.53454   1.61228
 Alpha virt. eigenvalues --    1.70739   1.72952   1.73418   1.77165   1.80286
 Alpha virt. eigenvalues --    1.91140   1.92946   1.93206   1.98607   2.02279
 Alpha virt. eigenvalues --    2.04949   2.05614   2.12984   2.14570   2.16330
 Alpha virt. eigenvalues --    2.19312   2.21865   2.25895   2.27738   2.30820
 Alpha virt. eigenvalues --    2.39584   2.39751   2.47672   2.49583   2.53867
 Alpha virt. eigenvalues --    2.54268   2.61883   2.70057   2.81466   2.84006
 Alpha virt. eigenvalues --    2.97635   2.98817   3.14842   4.03299   4.05858
 Alpha virt. eigenvalues --    4.09034   4.16994   4.18425   4.35582   4.45541
 Alpha virt. eigenvalues --    4.56386
          Condensed to atoms (all electrons):
              1          2          3          4          5          6
     1  C    5.063152   0.371862   0.366535   0.624934  -0.051287  -0.029181
     2  H    0.371862   0.559260  -0.040031  -0.035287   0.005640  -0.011163
     3  H    0.366535  -0.040031   0.555729  -0.024182  -0.006552   0.003868
     4  C    0.624934  -0.035287  -0.024182   4.779924   0.368848   0.420626
     5  H   -0.051287   0.005640  -0.006552   0.368848   0.584985  -0.043893
     6  C   -0.029181  -0.011163   0.003868   0.420626  -0.043893   4.925033
     7  H   -0.003276   0.004492  -0.000028  -0.044869   0.003769   0.355083
     8  C    0.001504   0.000527  -0.000134  -0.011769  -0.003467   0.611641
     9  H    0.000578   0.000020  -0.000012  -0.010887   0.004661  -0.065323
    10  C   -0.000127   0.000002   0.000001   0.002817  -0.000008  -0.026144
    11  H    0.000000   0.000000   0.000000  -0.000050   0.000002   0.003751
    12  C    0.000006   0.000000   0.000000  -0.000034  -0.000001  -0.012906
    13  H    0.000000   0.000001   0.000000  -0.000028   0.000001   0.002553
    14  C    0.000000   0.000000   0.000000   0.000000   0.000000   0.000192
    15  H    0.000000   0.000000   0.000000   0.000000   0.000000  -0.000009
    16  C    0.000000   0.000000   0.000000   0.000000   0.000000   0.000001
    17  H    0.000000   0.000000   0.000000   0.000000   0.000000   0.000000
    18  H    0.000000   0.000000   0.000000   0.000000   0.000000   0.000000
              7          8          9         10         11         12
     1  C   -0.003276   0.001504   0.000578  -0.000127   0.000000   0.000006
     2  H    0.004492   0.000527   0.000020   0.000002   0.000000   0.000000
     3  H   -0.000028  -0.000134  -0.000012   0.000001   0.000000   0.000000
     4  C   -0.044869  -0.011769  -0.010887   0.002817  -0.000050  -0.000034
     5  H    0.003769  -0.003467   0.004661  -0.000008   0.000002  -0.000001
     6  C    0.355083   0.611641  -0.065323  -0.026144   0.003751  -0.012906
     7  H    0.596383  -0.046626   0.006734  -0.005486  -0.000070   0.002259
     8  C   -0.046626   4.918638   0.351761   0.384626  -0.033810  -0.031539
     9  H    0.006734   0.351761   0.654590  -0.057131  -0.007277   0.007706
    10  C   -0.005486   0.384626  -0.057131   4.923018   0.367341   0.621710
    11  H   -0.000070  -0.033810  -0.007277   0.367341   0.576395  -0.052982
    12  C    0.002259  -0.031539   0.007706   0.621710  -0.052982   4.929659
    13  H    0.001903  -0.010136   0.000291  -0.052774   0.005511   0.366457
    14  C   -0.000038   0.005584  -0.000396  -0.029964  -0.009898   0.399265
    15  H    0.000007  -0.000403   0.000011   0.007551   0.000305  -0.057165
    16  C    0.000000   0.000153  -0.000006  -0.012679   0.002725  -0.036397
    17  H    0.000000  -0.000057   0.000009   0.002698   0.002079  -0.006606
    18  H    0.000000   0.000001   0.000000  -0.000067  -0.000066   0.003578
             13         14         15         16         17         18
     1  C    0.000000   0.000000   0.000000   0.000000   0.000000   0.000000
     2  H    0.000001   0.000000   0.000000   0.000000   0.000000   0.000000
     3  H    0.000000   0.000000   0.000000   0.000000   0.000000   0.000000
     4  C   -0.000028   0.000000   0.000000   0.000000   0.000000   0.000000
     5  H    0.000001   0.000000   0.000000   0.000000   0.000000   0.000000
     6  C    0.002553   0.000192  -0.000009   0.000001   0.000000   0.000000
     7  H    0.001903  -0.000038   0.000007   0.000000   0.000000   0.000000
     8  C   -0.010136   0.005584  -0.000403   0.000153  -0.000057   0.000001
     9  H    0.000291  -0.000396   0.000011  -0.000006   0.000009   0.000000
    10  C   -0.052774  -0.029964   0.007551  -0.012679   0.002698  -0.000067
    11  H    0.005511  -0.009898   0.000305   0.002725   0.002079  -0.000066
    12  C    0.366457   0.399265  -0.057165  -0.036397  -0.006606   0.003578
    13  H    0.579255  -0.034369  -0.007014   0.003912  -0.000076  -0.000079
    14  C   -0.034369   4.788317   0.349607   0.655778  -0.032385  -0.018316
    15  H   -0.007014   0.349607   0.654426  -0.057830   0.006778  -0.010579
    16  C    0.003912   0.655778  -0.057830   5.066004   0.360905   0.371513
    17  H   -0.000076  -0.032385   0.006778   0.360905   0.569221  -0.042374
    18  H   -0.000079  -0.018316  -0.010579   0.371513  -0.042374   0.541139
 Mulliken atomic charges:
              1
     1  C   -0.344702
     2  H    0.144678
     3  H    0.144805
     4  C   -0.070043
     5  H    0.137301
     6  C   -0.134132
     7  H    0.129762
     8  C   -0.136497
     9  H    0.114670
    10  C   -0.125385
    11  H    0.146045
    12  C   -0.133008
    13  H    0.144589
    14  C   -0.073378
    15  H    0.114315
    16  C   -0.354077
    17  H    0.139807
    18  H    0.155250
 Sum of Mulliken atomic charges =   0.00000
 Mulliken charges with hydrogens summed into heavy atoms:
              1
     1  C   -0.055219
     4  C    0.067258
     6  C   -0.004370
     8  C   -0.021827
    10  C    0.020660
    12  C    0.011581
    14  C    0.040937
    16  C   -0.059020
 Sum of Mulliken charges with hydrogens summed into heavy atoms =   0.00000
 Electronic spatial extent (au):  <R**2>=           1941.0334
 Charge=              0.0000 electrons
 Dipole moment (field-independent basis, Debye):
    X=             -0.0463    Y=              0.0880    Z=              0.0000  Tot=              0.0995
 Quadrupole moment (field-independent basis, Debye-Ang):
   XX=            -43.7856   YY=            -44.4828   ZZ=            -53.9467
   XY=              0.9583   XZ=              0.0000   YZ=              0.0000
 Traceless Quadrupole moment (field-independent basis, Debye-Ang):
   XX=              3.6195   YY=              2.9222   ZZ=             -6.5417
   XY=              0.9583   XZ=              0.0000   YZ=              0.0000
 Octapole moment (field-independent basis, Debye-Ang**2):
  XXX=              1.6169  YYY=              4.8650  ZZZ=              0.0000  XYY=             -1.3489
  XXY=             -0.5926  XXZ=              0.0000  XZZ=              0.0087  YZZ=              0.0307
  YYZ=              0.0000  XYZ=              0.0000
 Hexadecapole moment (field-independent basis, Debye-Ang**3):
 XXXX=          -1138.9765 YYYY=          -1296.8573 ZZZZ=            -56.2729 XXXY=            529.4925
 XXXZ=              0.0000 YYYX=            510.5403 YYYZ=              0.0000 ZZZX=              0.0000
 ZZZY=              0.0000 XXYY=           -401.2652 XXZZ=           -237.6585 YYZZ=           -273.5605
 XXYZ=              0.0000 YYXZ=              0.0000 ZZXY=            213.5839
 N-N= 2.940941231333D+02 E-N=-1.306430638021D+03  KE= 3.074267535354D+02
 Symmetry A'   KE= 2.989959673324D+02
 Symmetry A"   KE= 8.430786203013D+00
 Calling FoFJK, ICntrl=      2127 FMM=F ISym2X=1 I1Cent= 0 IOpClX= 0 NMat=1 NMatS=1 NMatT=0.
 ***** Axes restored to original set *****
 -------------------------------------------------------------------
 Center     Atomic                   Forces (Hartrees/Bohr)
 Number     Number              X              Y              Z
 -------------------------------------------------------------------
      1        6           0.022602963   -0.023291186    0.000000000
      2        1          -0.002367603    0.011879881    0.000000000
      3        1          -0.012157608   -0.000339924    0.000000000
      4        6           0.025685160    0.053888467    0.000000000
      5        1           0.004356471   -0.012381884    0.000000000
      6        6          -0.013194381   -0.040343887    0.000000000
      7        1          -0.005470243    0.014046167    0.000000000
      8        6           0.045065379   -0.034836227    0.000000000
      9        1          -0.029616470   -0.015379349    0.000000000
     10        6          -0.051534126    0.068563933    0.000000000
     11        1          -0.001818968   -0.012434740    0.000000000
     12        6           0.049560872   -0.068028394    0.000000000
     13        1           0.001658248    0.012254632    0.000000000
     14        6          -0.032311182    0.032488008    0.000000000
     15        1           0.028386232    0.015285642    0.000000000
     16        6          -0.042295776    0.010032285    0.000000000
     17        1           0.003923196   -0.013655563    0.000000000
     18        1           0.009527834    0.002252139    0.000000000
 -------------------------------------------------------------------
 Cartesian Forces:  Max     0.068563933 RMS     0.024171094

 GradGradGradGradGradGradGradGradGradGradGradGradGradGradGradGradGradGrad
 Berny optimization.
 Internal  Forces:  Max     0.049731262 RMS     0.016211540
 Search for a local minimum.
 Step number   1 out of a maximum of   79
 All quantities printed in internal units (Hartrees-Bohrs-Radians)
 Mixed Optimization -- RFO/linear search
 Second derivative matrix not updated -- first step.
 ITU=  0
     Eigenvalues ---    0.00237   0.00237   0.00237   0.01459   0.01459
     Eigenvalues ---    0.01463   0.01463   0.01623   0.01628   0.02681
     Eigenvalues ---    0.02681   0.02681   0.02681   0.02681   0.02681
     Eigenvalues ---    0.16000   0.16000   0.16000   0.16000   0.16000
     Eigenvalues ---    0.16000   0.16000   0.16000   0.16000   0.16000
     Eigenvalues ---    0.22000   0.22000   0.22000   0.22000   0.22000
     Eigenvalues ---    0.22000   0.28519   0.28519   0.28519   0.37230
     Eigenvalues ---    0.37230   0.37230   0.37230   0.37230   0.37230
     Eigenvalues ---    0.37230   0.37230   0.37230   0.37230   0.53930
     Eigenvalues ---    0.53930   0.53930   0.53930
 RFO step:  Lambda=-6.10429152D-02 EMin= 2.36824059D-03
 Linear search not attempted -- first point.
 Maximum step size (   0.300) exceeded in Quadratic search.
    -- Step size scaled by   0.646
 Iteration  1 RMS(Cart)=  0.08933321 RMS(Int)=  0.00153275
 Iteration  2 RMS(Cart)=  0.00406281 RMS(Int)=  0.00000112
 Iteration  3 RMS(Cart)=  0.00000247 RMS(Int)=  0.00000000
 Iteration  4 RMS(Cart)=  0.00000000 RMS(Int)=  0.00000000
 ClnCor:  largest displacement from symmetrization is 5.57D-11 for atom     3.
 Variable       Old X    -DE/DX   Delta X   Delta X   Delta X     New X
                                 (Linear)    (Quad)   (Total)
    R1        2.02201   0.01147   0.00000   0.01710   0.01710   2.03910
    R2        2.02201   0.01137   0.00000   0.01694   0.01694   2.03894
    R3        2.56096  -0.01357   0.00000  -0.01460  -0.01460   2.54636
    R4        2.02201   0.01171   0.00000   0.01745   0.01745   2.03946
    R5        2.91018  -0.04659   0.00000  -0.08690  -0.08690   2.82328
    R6        2.02201   0.01322   0.00000   0.01970   0.01970   2.04171
    R7        2.56096  -0.01337   0.00000  -0.01438  -0.01438   2.54657
    R8        2.02201   0.01892   0.00000   0.02819   0.02819   2.05020
    R9        2.91018  -0.03518   0.00000  -0.06561  -0.06561   2.84456
   R10        2.02201   0.00992   0.00000   0.01478   0.01478   2.03679
   R11        2.56096   0.00131   0.00000   0.00141   0.00141   2.56237
   R12        2.02201   0.00989   0.00000   0.01473   0.01473   2.03674
   R13        2.91018  -0.03332   0.00000  -0.06214  -0.06214   2.84804
   R14        2.02201   0.01906   0.00000   0.02840   0.02840   2.05040
   R15        2.56096  -0.02194   0.00000  -0.02360  -0.02360   2.53735
   R16        2.02201   0.01302   0.00000   0.01940   0.01940   2.04141
   R17        2.02201   0.00967   0.00000   0.01441   0.01441   2.03642
    A1        2.09241  -0.00554   0.00000  -0.01617  -0.01617   2.07624
    A2        2.09836   0.00232   0.00000   0.00678   0.00678   2.10513
    A3        2.09241   0.00322   0.00000   0.00939   0.00939   2.10181
    A4        2.09836   0.00056   0.00000   0.00503   0.00503   2.10339
    A5        2.09241   0.01085   0.00000   0.02492   0.02492   2.11734
    A6        2.09241  -0.01141   0.00000  -0.02995  -0.02995   2.06246
    A7        2.09241  -0.01002   0.00000  -0.02759  -0.02759   2.06482
    A8        2.09836   0.00540   0.00000   0.01240   0.01240   2.11076
    A9        2.09241   0.00462   0.00000   0.01519   0.01519   2.10761
   A10        2.09836  -0.00585   0.00000  -0.03078  -0.03078   2.06758
   A11        2.49609  -0.04388   0.00000  -0.10082  -0.10082   2.39527
   A12        1.68874   0.04973   0.00000   0.13160   0.13160   1.82034
   A13        2.09241  -0.01915   0.00000  -0.04886  -0.04886   2.04355
   A14        2.09836   0.02270   0.00000   0.05216   0.05216   2.15052
   A15        2.09241  -0.00355   0.00000  -0.00330  -0.00330   2.08912
   A16        2.09836  -0.00387   0.00000  -0.00422  -0.00422   2.09414
   A17        2.09241   0.02276   0.00000   0.05230   0.05230   2.14472
   A18        2.09241  -0.01889   0.00000  -0.04809  -0.04809   2.04433
   A19        1.69737   0.04827   0.00000   0.12731   0.12731   1.82469
   A20        2.49340  -0.04396   0.00000  -0.10102  -0.10102   2.39238
   A21        2.09241  -0.00431   0.00000  -0.02630  -0.02630   2.06612
   A22        2.09836   0.00664   0.00000   0.01940   0.01940   2.11776
   A23        2.09241  -0.00177   0.00000  -0.00518  -0.00518   2.08723
   A24        2.09241  -0.00487   0.00000  -0.01422  -0.01422   2.07819
    D1        3.14159   0.00000   0.00000   0.00000   0.00000   3.14159
    D2        0.00000   0.00000   0.00000   0.00000   0.00000   0.00000
    D3        0.00000   0.00000   0.00000   0.00000   0.00000   0.00000
    D4        3.14159   0.00000   0.00000   0.00000   0.00000   3.14159
    D5        0.00000   0.00000   0.00000   0.00000   0.00000   0.00000
    D6        3.14159   0.00000   0.00000   0.00000   0.00000   3.14159
    D7        3.14159   0.00000   0.00000   0.00000   0.00000   3.14159
    D8        0.00000   0.00000   0.00000   0.00000   0.00000   0.00000
    D9        0.00000   0.00000   0.00000   0.00000   0.00000   0.00000
   D10        3.14159   0.00000   0.00000   0.00000   0.00000   3.14159
   D11        3.14159   0.00000   0.00000   0.00000   0.00000   3.14159
   D12        0.00000   0.00000   0.00000   0.00000   0.00000   0.00000
   D13        3.14159   0.00000   0.00000   0.00000   0.00000   3.14159
   D14        0.00000   0.00000   0.00000   0.00000   0.00000   0.00000
   D15        0.00000   0.00000   0.00000   0.00000   0.00000   0.00000
   D16        3.14159   0.00000   0.00000   0.00000   0.00000   3.14159
   D17        0.00000   0.00000   0.00000   0.00000   0.00000   0.00000
   D18        3.14159   0.00000   0.00000   0.00000   0.00000   3.14159
   D19        3.14159   0.00000   0.00000   0.00000   0.00000   3.14159
   D20        0.00000   0.00000   0.00000   0.00000   0.00000   0.00000
   D21        3.14159   0.00000   0.00000   0.00000   0.00000   3.14159
   D22        0.00000   0.00000   0.00000   0.00000   0.00000   0.00000
   D23        0.00000   0.00000   0.00000   0.00000   0.00000   0.00000
   D24        3.14159   0.00000   0.00000   0.00000   0.00000   3.14159
   D25        0.00000   0.00000   0.00000   0.00000   0.00000   0.00000
   D26        3.14159   0.00000   0.00000   0.00000   0.00000   3.14159
   D27        3.14159   0.00000   0.00000   0.00000   0.00000   3.14159
   D28        0.00000   0.00000   0.00000   0.00000   0.00000   0.00000
         Item               Value     Threshold  Converged?
 Maximum Force            0.049731     0.000450     NO 
 RMS     Force            0.016212     0.000300     NO 
 Maximum Displacement     0.250825     0.001800     NO 
 RMS     Displacement     0.090939     0.001200     NO 
 Predicted change in Energy=-2.943787D-02
 GradGradGradGradGradGradGradGradGradGradGradGradGradGradGradGradGradGrad

                          Input orientation:                          
 ---------------------------------------------------------------------
 Center     Atomic      Atomic             Coordinates (Angstroms)
 Number     Number       Type             X           Y           Z
 ---------------------------------------------------------------------
      1          6           0       -6.572177    0.551567    0.000000
      2          1           0       -6.410800    1.618479    0.000000
      3          1           0       -7.583740    0.176199    0.000000
      4          6           0       -5.528204   -0.300376    0.000000
      5          1           0       -5.691475   -1.367191    0.000000
      6          6           0       -4.119613    0.197573    0.000000
      7          1           0       -3.953639    1.265173    0.000000
      8          6           0       -3.081184   -0.661298    0.000000
      9          1           0       -3.290617   -1.725812    0.000000
     10          6           0       -1.578206   -0.578119    0.000000
     11          1           0       -1.035154   -1.509139    0.000000
     12          6           0       -0.899251    0.595598    0.000000
     13          1           0       -1.437607    1.529311    0.000000
     14          6           0        0.606020    0.670150    0.000000
     15          1           0        0.826262    1.732589    0.000000
     16          6           0        1.633220   -0.194564    0.000000
     17          1           0        1.468839   -1.262249    0.000000
     18          1           0        2.643788    0.179639    0.000000
 ---------------------------------------------------------------------
                    Distance matrix (angstroms):
                    1          2          3          4          5
     1  C    0.000000
     2  H    1.079047   0.000000
     3  H    1.078963   1.859021   0.000000
     4  C    1.347474   2.112103   2.110059   0.000000
     5  H    2.111224   3.071100   2.441868   1.079237   0.000000
     6  C    2.477979   2.696017   3.464192   1.494015   2.217935
     7  H    2.714033   2.482432   3.789920   2.220405   3.154269
     8  C    3.695683   4.035309   4.579782   2.473494   2.704053
     9  H    3.994382   4.573819   4.695588   2.653048   2.427494
    10  C    5.120150   5.308391   6.052721   3.959752   4.188272
    11  H    5.908056   6.219290   6.761977   4.652807   4.658484
    12  C    5.673096   5.605663   6.697632   4.714868   5.178605
    13  H    5.226833   4.973992   6.293318   4.481154   5.146369
    14  C    7.179177   7.080614   8.204642   6.210526   6.618852
    15  H    7.492110   7.237962   8.552805   6.671746   7.217308
    16  C    8.239250   8.245810   9.224413   7.162206   7.417965
    17  H    8.243050   8.389715   9.166151   7.062848   7.161083
    18  H    9.223467   9.168196  10.227528   8.186078   8.477576
                    6          7          8          9         10
     6  C    0.000000
     7  H    1.080424   0.000000
     8  C    1.347588   2.114820   0.000000
     9  H    2.094431   3.063590   1.084920   0.000000
    10  C    2.657151   3.006727   1.505279   2.061444   0.000000
    11  H    3.525160   4.026705   2.214740   2.265847   1.077823
    12  C    3.244866   3.126917   2.518059   3.332803   1.355947
    13  H    2.994442   2.529858   2.738633   3.745593   2.112115
    14  C    4.749204   4.598319   3.920234   4.574321   2.515754
    15  H    5.178606   4.802700   4.582448   5.376731   3.334792
    16  C    5.766182   5.774410   4.737451   5.156441   3.234249
    17  H    5.775975   5.982569   4.589538   4.781978   3.122902
    18  H    6.763425   6.686136   5.786405   6.232809   4.289455
                   11         12         13         14         15
    11  H    0.000000
    12  C    2.109120   0.000000
    13  H    3.064987   1.077797   0.000000
    14  C    2.728141   1.507117   2.216883   0.000000
    15  H    3.738137   2.066433   2.272978   1.085027   0.000000
    16  C    2.974613   2.652879   3.521608   1.342709   2.089282
    17  H    2.516135   3.009892   4.029918   2.116276   3.062999
    18  H    4.048034   3.567373   4.298767   2.095972   2.390618
                   16         17         18
    16  C    0.000000
    17  H    1.080265   0.000000
    18  H    1.077625   1.859985   0.000000
 Stoichiometry    C8H10
 Framework group  CS[SG(C8H10)]
 Deg. of freedom    33
 Full point group                 CS      NOp   2
 Largest Abelian subgroup         CS      NOp   2
 Largest concise Abelian subgroup C1      NOp   1
                         Standard orientation:                         
 ---------------------------------------------------------------------
 Center     Atomic      Atomic             Coordinates (Angstroms)
 Number     Number       Type             X           Y           Z
 ---------------------------------------------------------------------
      1          6           0       -3.398391    2.400377    0.000000
      2          1           0       -3.997033    1.502618    0.000000
      3          1           0       -3.893994    3.358781    0.000000
      4          6           0       -2.052865    2.327960    0.000000
      5          1           0       -1.455689    3.226922    0.000000
      6          6           0       -1.346088    1.011697    0.000000
      7          1           0       -1.941792    0.110334    0.000000
      8          6           0        0.000000    0.948135    0.000000
      9          1           0        0.561483    1.876460    0.000000
     10          6           0        1.055722   -0.124859    0.000000
     11          1           0        2.083952    0.198322    0.000000
     12          6           0        0.768036   -1.449936    0.000000
     13          1           0       -0.258532   -1.778268    0.000000
     14          6           0        1.831260   -2.518091    0.000000
     15          1           0        1.279169   -3.452157    0.000000
     16          6           0        3.172975   -2.569774    0.000000
     17          1           0        3.769915   -1.669421    0.000000
     18          1           0        3.668626   -3.526646    0.000000
 ---------------------------------------------------------------------
 Rotational constants (GHZ):     11.7841450      0.6182635      0.5874428
 Standard basis: 6-31G(d) (6D, 7F)
 There are   108 symmetry adapted basis functions of A'  symmetry.
 There are    32 symmetry adapted basis functions of A"  symmetry.
 Integral buffers will be    131072 words long.
 Raffenetti 2 integral format.
 Two-electron integral symmetry is turned on.
   140 basis functions,   264 primitive gaussians,   140 cartesian basis functions
    29 alpha electrons       29 beta electrons
       nuclear repulsion energy       297.4774718486 Hartrees.
 NAtoms=   18 NActive=   18 NUniq=   18 SFac= 1.00D+00 NAtFMM=   60 NAOKFM=F Big=F
 One-electron integrals computed using PRISM.
 NBasis=   140 RedAO= T  NBF=   108    32
 NBsUse=   140 1.00D-06 NBFU=   108    32
 Initial guess read from the read-write file.
 B after Tr=     0.000000    0.000000    0.000000
         Rot=    1.000000    0.000000    0.000000    0.000000 Ang=   0.00 deg.
 Initial guess orbital symmetries:
       Occupied  (A') (A') (A') (A') (A') (A') (A') (A') (A') (A')
                 (A') (A') (A') (A') (A') (A') (A') (A') (A') (A')
                 (A') (A') (A') (A') (A") (A') (A") (A") (A")
       Virtual   (A") (A") (A") (A') (A') (A") (A') (A') (A') (A')
                 (A') (A') (A') (A') (A') (A') (A') (A') (A') (A')
                 (A') (A') (A') (A") (A") (A') (A') (A") (A') (A")
                 (A') (A") (A') (A") (A') (A') (A') (A") (A") (A')
                 (A') (A') (A') (A') (A') (A') (A') (A') (A') (A')
                 (A') (A') (A') (A') (A') (A') (A') (A') (A') (A')
                 (A") (A') (A") (A") (A') (A") (A') (A") (A") (A")
                 (A") (A") (A') (A') (A') (A') (A") (A') (A') (A')
                 (A") (A') (A') (A') (A") (A') (A') (A") (A') (A')
                 (A') (A") (A") (A') (A") (A') (A') (A') (A') (A')
                 (A') (A') (A') (A') (A') (A') (A') (A') (A') (A')
                 (A')
 Harris functional with IExCor=  402 diagonalized for initial guess.
 ExpMin= 1.61D-01 ExpMax= 3.05D+03 ExpMxC= 4.57D+02 IAcc=1 IRadAn=         1 AccDes= 0.00D+00
 HarFok:  IExCor=  402 AccDes= 0.00D+00 IRadAn=         1 IDoV= 1
 ScaDFX=  1.000000  1.000000  1.000000  1.000000
 FoFCou: FMM=F IPFlag=           0 FMFlag=      100000 FMFlg1=           0
         NFxFlg=           0 DoJE=T BraDBF=F KetDBF=T FulRan=T
         Omega=  0.000000  0.000000  1.000000  0.000000  0.000000 ICntrl=     500 IOpCl=  0
         NMat0=    1 NMatS0=    1 NMatT0=    0 NMatD0=    1 NMtDS0=    0 NMtDT0=    0
         I1Cent=           4 NGrid=           0.
 Petite list used in FoFCou.
 Requested convergence on RMS density matrix=1.00D-08 within 128 cycles.
 Requested convergence on MAX density matrix=1.00D-06.
 Requested convergence on             energy=1.00D-06.
 No special actions if energy rises.
 Integral accuracy reduced to 1.0D-05 until final iterations.
 Initial convergence to 1.0D-05 achieved.  Increase integral accuracy.
 SCF Done:  E(RB3LYP) =  -310.777781316     A.U. after   12 cycles
             Convg  =    0.9975D-08             -V/T =  2.0106
 Calling FoFJK, ICntrl=      2127 FMM=F ISym2X=1 I1Cent= 0 IOpClX= 0 NMat=1 NMatS=1 NMatT=0.
 ***** Axes restored to original set *****
 -------------------------------------------------------------------
 Center     Atomic                   Forces (Hartrees/Bohr)
 Number     Number              X              Y              Z
 -------------------------------------------------------------------
      1        6           0.008050548   -0.013191072    0.000000000
      2        1          -0.002010081    0.005528780    0.000000000
      3        1          -0.005648215    0.001535218    0.000000000
      4        6           0.018147916    0.029738513    0.000000000
      5        1           0.001551106   -0.006190100    0.000000000
      6        6          -0.012127906   -0.017151425    0.000000000
      7        1          -0.002243474    0.006462305    0.000000000
      8        6           0.036644449   -0.029081186    0.000000000
      9        1          -0.015264274   -0.003567198    0.000000000
     10        6          -0.035922844    0.039201127    0.000000000
     11        1           0.000030553   -0.006321772    0.000000000
     12        6           0.033507443   -0.038783543    0.000000000
     13        1          -0.000196636    0.006225700    0.000000000
     14        6          -0.026780741    0.028422600    0.000000000
     15        1           0.014161308    0.003595170    0.000000000
     16        6          -0.020098929    0.000148086    0.000000000
     17        1           0.003047871   -0.005803822    0.000000000
     18        1           0.005151906   -0.000767381    0.000000000
 -------------------------------------------------------------------
 Cartesian Forces:  Max     0.039201127 RMS     0.015049244

 GradGradGradGradGradGradGradGradGradGradGradGradGradGradGradGradGradGrad
 Berny optimization.
 Using GEDIIS/GDIIS optimizer.
 Internal  Forces:  Max     0.028881515 RMS     0.009380534
 Search for a local minimum.
 Step number   2 out of a maximum of   79
 All quantities printed in internal units (Hartrees-Bohrs-Radians)
 Mixed Optimization -- RFO/linear search
 Update second derivatives using D2CorX and points    1    2
 DE= -3.11D-02 DEPred=-2.94D-02 R= 1.06D+00
 SS=  1.41D+00  RLast= 3.00D-01 DXNew= 5.0454D-01 9.0000D-01
 Trust test= 1.06D+00 RLast= 3.00D-01 DXMaxT set to 5.05D-01
 ITU=  1  0
 Use linear search instead of GDIIS.
     Eigenvalues ---    0.00237   0.00237   0.00237   0.01487   0.01489
     Eigenvalues ---    0.01489   0.01492   0.01575   0.01578   0.02681
     Eigenvalues ---    0.02681   0.02681   0.02681   0.02681   0.02681
     Eigenvalues ---    0.14964   0.16000   0.16000   0.16000   0.16000
     Eigenvalues ---    0.16000   0.16000   0.16000   0.16000   0.16815
     Eigenvalues ---    0.17954   0.22000   0.22000   0.22000   0.22000
     Eigenvalues ---    0.22583   0.26886   0.28519   0.29009   0.37138
     Eigenvalues ---    0.37230   0.37230   0.37230   0.37230   0.37230
     Eigenvalues ---    0.37230   0.37230   0.37230   0.38328   0.53887
     Eigenvalues ---    0.53930   0.53930   0.56221
 RFO step:  Lambda=-4.79584340D-03 EMin= 2.36824059D-03
 Quartic linear search produced a step of  1.21924.
 Iteration  1 RMS(Cart)=  0.16661694 RMS(Int)=  0.00435737
 Iteration  2 RMS(Cart)=  0.01249716 RMS(Int)=  0.00001049
 Iteration  3 RMS(Cart)=  0.00002124 RMS(Int)=  0.00000000
 Iteration  4 RMS(Cart)=  0.00000000 RMS(Int)=  0.00000000
 ClnCor:  largest displacement from symmetrization is 1.06D-11 for atom    17.
 Variable       Old X    -DE/DX   Delta X   Delta X   Delta X     New X
                                 (Linear)    (Quad)   (Total)
    R1        2.03910   0.00516   0.02085  -0.00555   0.01529   2.05440
    R2        2.03894   0.00476   0.02065  -0.00758   0.01307   2.05201
    R3        2.54636  -0.00418  -0.01780   0.01210  -0.00570   2.54066
    R4        2.03946   0.00589   0.02128  -0.00206   0.01922   2.05868
    R5        2.82328  -0.02475  -0.10595   0.00228  -0.10367   2.71961
    R6        2.04171   0.00604   0.02402  -0.00587   0.01815   2.05986
    R7        2.54657  -0.00012  -0.01754   0.02820   0.01066   2.55723
    R8        2.05020   0.00645   0.03438  -0.02132   0.01306   2.06326
    R9        2.84456  -0.02563  -0.08000  -0.05133  -0.13132   2.71324
   R10        2.03679   0.00548   0.01802   0.00114   0.01916   2.05595
   R11        2.56237  -0.00162   0.00172  -0.00940  -0.00768   2.55468
   R12        2.03674   0.00549   0.01796   0.00134   0.01930   2.05604
   R13        2.84804  -0.02322  -0.07576  -0.04060  -0.11637   2.73167
   R14        2.05040   0.00640   0.03462  -0.02204   0.01258   2.06299
   R15        2.53735  -0.00497  -0.02878   0.02685  -0.00193   2.53542
   R16        2.04141   0.00527   0.02365  -0.00976   0.01389   2.05530
   R17        2.03642   0.00457   0.01757  -0.00343   0.01414   2.05056
    A1        2.07624  -0.00423  -0.01972  -0.01574  -0.03546   2.04078
    A2        2.10513   0.00151   0.00826   0.00314   0.01141   2.11654
    A3        2.10181   0.00271   0.01145   0.01260   0.02406   2.12587
    A4        2.10339  -0.00174   0.00613  -0.02353  -0.01739   2.08599
    A5        2.11734   0.00853   0.03039   0.02595   0.05634   2.17368
    A6        2.06246  -0.00678  -0.03652  -0.00242  -0.03894   2.02352
    A7        2.06482  -0.00623  -0.03364  -0.00440  -0.03804   2.02679
    A8        2.11076   0.00591   0.01512   0.02933   0.04444   2.15520
    A9        2.10761   0.00032   0.01852  -0.02493  -0.00641   2.10120
   A10        2.06758  -0.00041  -0.03753   0.03207  -0.00546   2.06212
   A11        2.39527  -0.02847  -0.12292  -0.04563  -0.16855   2.22672
   A12        1.82034   0.02888   0.16045   0.01356   0.17401   1.99435
   A13        2.04355  -0.00899  -0.05958   0.01848  -0.04109   2.00246
   A14        2.15052   0.01155   0.06360  -0.00772   0.05587   2.20639
   A15        2.08912  -0.00256  -0.00402  -0.01076  -0.01478   2.07434
   A16        2.09414  -0.00277  -0.00514  -0.01136  -0.01650   2.07764
   A17        2.14472   0.01154   0.06377  -0.00822   0.05555   2.20027
   A18        2.04433  -0.00876  -0.05863   0.01957  -0.03906   2.00527
   A19        1.82469   0.02764   0.15522   0.00799   0.16322   1.98790
   A20        2.39238  -0.02835  -0.12316  -0.04395  -0.16711   2.22527
   A21        2.06612   0.00071  -0.03206   0.03596   0.00389   2.07001
   A22        2.11776   0.00360   0.02366  -0.00087   0.02279   2.14055
   A23        2.08723   0.00075  -0.00632   0.02327   0.01695   2.10419
   A24        2.07819  -0.00435  -0.01734  -0.02240  -0.03974   2.03845
    D1        3.14159   0.00000   0.00000   0.00000   0.00000   3.14159
    D2        0.00000   0.00000   0.00000   0.00000   0.00000   0.00000
    D3        0.00000   0.00000   0.00000   0.00000   0.00000   0.00000
    D4        3.14159   0.00000   0.00000   0.00000   0.00000   3.14159
    D5        0.00000   0.00000   0.00000   0.00000   0.00000   0.00000
    D6        3.14159   0.00000   0.00000   0.00000   0.00000   3.14159
    D7        3.14159   0.00000   0.00000   0.00000   0.00000   3.14159
    D8        0.00000   0.00000   0.00000   0.00000   0.00000   0.00000
    D9        0.00000   0.00000   0.00000   0.00000   0.00000   0.00000
   D10        3.14159   0.00000   0.00000   0.00000   0.00000   3.14159
   D11        3.14159   0.00000   0.00000   0.00000   0.00000   3.14159
   D12        0.00000   0.00000   0.00000   0.00000   0.00000   0.00000
   D13        3.14159   0.00000   0.00000   0.00000   0.00000   3.14159
   D14        0.00000   0.00000   0.00000   0.00000   0.00000   0.00000
   D15        0.00000   0.00000   0.00000   0.00000   0.00000   0.00000
   D16        3.14159   0.00000   0.00000   0.00000   0.00000   3.14159
   D17        0.00000   0.00000   0.00000   0.00000   0.00000   0.00000
   D18        3.14159   0.00000   0.00000   0.00000   0.00000   3.14159
   D19        3.14159   0.00000   0.00000   0.00000   0.00000   3.14159
   D20        0.00000   0.00000   0.00000   0.00000   0.00000   0.00000
   D21        3.14159   0.00000   0.00000   0.00000   0.00000   3.14159
   D22        0.00000   0.00000   0.00000   0.00000   0.00000   0.00000
   D23        0.00000   0.00000   0.00000   0.00000   0.00000   0.00000
   D24        3.14159   0.00000   0.00000   0.00000   0.00000   3.14159
   D25        0.00000   0.00000   0.00000   0.00000   0.00000   0.00000
   D26        3.14159   0.00000   0.00000   0.00000   0.00000   3.14159
   D27        3.14159   0.00000   0.00000   0.00000   0.00000   3.14159
   D28        0.00000   0.00000   0.00000   0.00000   0.00000   0.00000
         Item               Value     Threshold  Converged?
 Maximum Force            0.028882     0.000450     NO 
 RMS     Force            0.009381     0.000300     NO 
 Maximum Displacement     0.478040     0.001800     NO 
 RMS     Displacement     0.172881     0.001200     NO 
 Predicted change in Energy=-1.767035D-02
 GradGradGradGradGradGradGradGradGradGradGradGradGradGradGradGradGradGrad

                          Input orientation:                          
 ---------------------------------------------------------------------
 Center     Atomic      Atomic             Coordinates (Angstroms)
 Number     Number       Type             X           Y           Z
 ---------------------------------------------------------------------
      1          6           0       -6.398516    0.632015    0.000000
      2          1           0       -6.195443    1.700021    0.000000
      3          1           0       -7.441479    0.329754    0.000000
      4          6           0       -5.399934   -0.268206    0.000000
      5          1           0       -5.636023   -1.331722    0.000000
      6          6           0       -4.000092    0.065873    0.000000
      7          1           0       -3.760389    1.129219    0.000000
      8          6           0       -3.011908   -0.858639    0.000000
      9          1           0       -3.293440   -1.913548    0.000000
     10          6           0       -1.595098   -0.625987    0.000000
     11          1           0       -0.985812   -1.527339    0.000000
     12          6           0       -0.979429    0.577564    0.000000
     13          1           0       -1.585759    1.480964    0.000000
     14          6           0        0.448411    0.803060    0.000000
     15          1           0        0.729560    1.857921    0.000000
     16          6           0        1.421205   -0.120952    0.000000
     17          1           0        1.215871   -1.189010    0.000000
     18          1           0        2.464736    0.176543    0.000000
 ---------------------------------------------------------------------
                    Distance matrix (angstroms):
                    1          2          3          4          5
     1  C    0.000000
     2  H    1.087140   0.000000
     3  H    1.085879   1.852090   0.000000
     4  C    1.344457   2.122911   2.127313   0.000000
     5  H    2.106576   3.082923   2.453604   1.089405   0.000000
     6  C    2.464337   2.736788   3.451489   1.439155   2.151636
     7  H    2.684571   2.501060   3.766904   2.154276   3.094225
     8  C    3.700157   4.084316   4.586216   2.459935   2.666418
     9  H    4.015145   4.634598   4.715785   2.672914   2.413755
    10  C    4.965420   5.154949   5.923986   3.821621   4.102089
    11  H    5.827536   6.128304   6.717472   4.590195   4.654323
    12  C    5.419360   5.335421   6.466800   4.500688   5.032816
    13  H    4.887059   4.614886   5.967809   4.196132   4.931109
    14  C    6.849063   6.704129   7.904074   5.945650   6.448072
    15  H    7.232725   6.926803   8.312711   6.487766   7.120004
    16  C    7.855889   7.831301   8.874137   6.822728   7.160337
    17  H    7.829114   7.954501   8.789560   6.679578   6.853380
    18  H    8.874947   8.793162   9.907400   7.877235   8.239973
                    6          7          8          9         10
     6  C    0.000000
     7  H    1.090029   0.000000
     8  C    1.353229   2.124100   0.000000
     9  H    2.101776   3.078388   1.091830   0.000000
    10  C    2.502532   2.787335   1.435785   2.131239   0.000000
    11  H    3.409429   3.841299   2.133594   2.339723   1.087963
    12  C    3.063696   2.835148   2.488704   3.400041   1.351881
    13  H    2.798479   2.202894   2.740007   3.799853   2.106971
    14  C    4.509171   4.221419   3.838626   4.624004   2.493613
    15  H    5.057770   4.548697   4.623665   5.514390   3.402033
    16  C    5.424515   5.330276   4.494071   5.043935   3.058291
    17  H    5.364793   5.489750   4.240668   4.567148   2.866800
    18  H    6.465775   6.297601   5.573619   6.125771   4.138394
                   11         12         13         14         15
    11  H    0.000000
    12  C    2.104912   0.000000
    13  H    3.067543   1.088011   0.000000
    14  C    2.736377   1.445537   2.144155   0.000000
    15  H    3.795061   2.135406   2.345804   1.091685   0.000000
    16  C    2.787769   2.500194   3.407047   1.341688   2.096261
    17  H    2.227527   2.817823   3.870128   2.134793   3.085497
    18  H    3.848311   3.467433   4.255352   2.111419   2.416168
                   16         17         18
    16  C    0.000000
    17  H    1.087617   0.000000
    18  H    1.085108   1.850513   0.000000
 Stoichiometry    C8H10
 Framework group  CS[SG(C8H10)]
 Deg. of freedom    33
 Full point group                 CS      NOp   2
 Largest Abelian subgroup         CS      NOp   2
 Largest concise Abelian subgroup C1      NOp   1
                         Standard orientation:                         
 ---------------------------------------------------------------------
 Center     Atomic      Atomic             Coordinates (Angstroms)
 Number     Number       Type             X           Y           Z
 ---------------------------------------------------------------------
      1          6           0       -3.656022    1.628917    0.000000
      2          1           0       -4.060628    0.619874    0.000000
      3          1           0       -4.371598    2.445670    0.000000
      4          6           0       -2.329692    1.848944    0.000000
      5          1           0       -1.955316    2.872002    0.000000
      6          6           0       -1.330665    0.813034    0.000000
      7          1           0       -1.701905   -0.211829    0.000000
      8          6           0        0.000000    1.059125    0.000000
      9          1           0        0.331459    2.099427    0.000000
     10          6           0        1.067989    0.099501    0.000000
     11          1           0        2.067022    0.530311    0.000000
     12          6           0        0.937857   -1.246102    0.000000
     13          1           0       -0.059790   -1.680230    0.000000
     14          6           0        2.018993   -2.205644    0.000000
     15          1           0        1.687237   -3.245699    0.000000
     16          6           0        3.336426   -1.951679    0.000000
     17          1           0        3.739155   -0.941372    0.000000
     18          1           0        4.055049   -2.764723    0.000000
 ---------------------------------------------------------------------
 Rotational constants (GHZ):     10.0532549      0.6806457      0.6374854
 Standard basis: 6-31G(d) (6D, 7F)
 There are   108 symmetry adapted basis functions of A'  symmetry.
 There are    32 symmetry adapted basis functions of A"  symmetry.
 Integral buffers will be    131072 words long.
 Raffenetti 2 integral format.
 Two-electron integral symmetry is turned on.
   140 basis functions,   264 primitive gaussians,   140 cartesian basis functions
    29 alpha electrons       29 beta electrons
       nuclear repulsion energy       304.0153095601 Hartrees.
 NAtoms=   18 NActive=   18 NUniq=   18 SFac= 1.00D+00 NAtFMM=   60 NAOKFM=F Big=F
 One-electron integrals computed using PRISM.
 NBasis=   140 RedAO= T  NBF=   108    32
 NBsUse=   140 1.00D-06 NBFU=   108    32
 Initial guess read from the read-write file.
 B after Tr=     0.000000    0.000000    0.000000
         Rot=    1.000000    0.000000    0.000000    0.000000 Ang=   0.00 deg.
 Initial guess orbital symmetries:
       Occupied  (A') (A') (A') (A') (A') (A') (A') (A') (A') (A')
                 (A') (A') (A') (A') (A') (A') (A') (A') (A') (A')
                 (A') (A') (A') (A') (A") (A') (A") (A") (A")
       Virtual   (A") (A") (A") (A') (A') (A") (A') (A') (A') (A')
                 (A') (A') (A') (A') (A') (A') (A') (A') (A') (A')
                 (A') (A') (A') (A") (A") (A') (A") (A') (A') (A")
                 (A') (A') (A") (A") (A') (A') (A') (A") (A") (A')
                 (A') (A') (A') (A') (A') (A') (A') (A') (A') (A')
                 (A') (A') (A') (A') (A') (A') (A') (A') (A') (A')
                 (A") (A') (A") (A") (A') (A") (A") (A') (A") (A")
                 (A") (A") (A') (A') (A') (A') (A') (A") (A') (A')
                 (A') (A") (A') (A') (A") (A') (A') (A") (A') (A')
                 (A") (A') (A") (A') (A') (A") (A') (A') (A') (A')
                 (A') (A') (A') (A') (A') (A') (A') (A') (A') (A')
                 (A')
 Harris functional with IExCor=  402 diagonalized for initial guess.
 ExpMin= 1.61D-01 ExpMax= 3.05D+03 ExpMxC= 4.57D+02 IAcc=1 IRadAn=         1 AccDes= 0.00D+00
 HarFok:  IExCor=  402 AccDes= 0.00D+00 IRadAn=         1 IDoV= 1
 ScaDFX=  1.000000  1.000000  1.000000  1.000000
 FoFCou: FMM=F IPFlag=           0 FMFlag=      100000 FMFlg1=           0
         NFxFlg=           0 DoJE=T BraDBF=F KetDBF=T FulRan=T
         Omega=  0.000000  0.000000  1.000000  0.000000  0.000000 ICntrl=     500 IOpCl=  0
         NMat0=    1 NMatS0=    1 NMatT0=    0 NMatD0=    1 NMtDS0=    0 NMtDT0=    0
         I1Cent=           4 NGrid=           0.
 Petite list used in FoFCou.
 Requested convergence on RMS density matrix=1.00D-08 within 128 cycles.
 Requested convergence on MAX density matrix=1.00D-06.
 Requested convergence on             energy=1.00D-06.
 No special actions if energy rises.
 Integral accuracy reduced to 1.0D-05 until final iterations.
 Initial convergence to 1.0D-05 achieved.  Increase integral accuracy.
 SCF Done:  E(RB3LYP) =  -310.793199539     A.U. after   14 cycles
             Convg  =    0.4644D-08             -V/T =  2.0098
 Calling FoFJK, ICntrl=      2127 FMM=F ISym2X=1 I1Cent= 0 IOpClX= 0 NMat=1 NMatS=1 NMatT=0.
 ***** Axes restored to original set *****
 -------------------------------------------------------------------
 Center     Atomic                   Forces (Hartrees/Bohr)
 Number     Number              X              Y              Z
 -------------------------------------------------------------------
      1        6          -0.000619564   -0.000553664    0.000000000
      2        1          -0.000373580    0.000437921    0.000000000
      3        1           0.000228736    0.000293475    0.000000000
      4        6          -0.003808316   -0.001002797    0.000000000
      5        1          -0.001229381   -0.000701069    0.000000000
      6        6          -0.000169940    0.002248205    0.000000000
      7        1           0.000769827   -0.000414104    0.000000000
      8        6          -0.005221450   -0.005638642    0.000000000
      9        1          -0.002664892    0.001629638    0.000000000
     10        6           0.004150622    0.000748246    0.000000000
     11        1           0.001486723    0.000412964    0.000000000
     12        6          -0.003195334   -0.000032887    0.000000000
     13        1          -0.001220533   -0.000402406    0.000000000
     14        6           0.004822333    0.004997690    0.000000000
     15        1           0.002339826   -0.001826108    0.000000000
     16        6           0.003408893    0.000043140    0.000000000
     17        1           0.000669706    0.000743779    0.000000000
     18        1           0.000626324   -0.000983380    0.000000000
 -------------------------------------------------------------------
 Cartesian Forces:  Max     0.005638642 RMS     0.001907056

 GradGradGradGradGradGradGradGradGradGradGradGradGradGradGradGradGradGrad
 Berny optimization.
 Using GEDIIS/GDIIS optimizer.
 Internal  Forces:  Max     0.013515858 RMS     0.002804692
 Search for a local minimum.
 Step number   3 out of a maximum of   79
 All quantities printed in internal units (Hartrees-Bohrs-Radians)
 Mixed Optimization -- RFO/linear search
 Update second derivatives using D2CorX and points    2    3
 DE= -1.54D-02 DEPred=-1.77D-02 R= 8.73D-01
 SS=  1.41D+00  RLast= 4.25D-01 DXNew= 8.4853D-01 1.2740D+00
 Trust test= 8.73D-01 RLast= 4.25D-01 DXMaxT set to 8.49D-01
 ITU=  1  1  0
 Use linear search instead of GDIIS.
     Eigenvalues ---    0.00237   0.00237   0.00237   0.01499   0.01500
     Eigenvalues ---    0.01503   0.01504   0.01508   0.01509   0.02681
     Eigenvalues ---    0.02681   0.02681   0.02681   0.02681   0.02681
     Eigenvalues ---    0.14339   0.16000   0.16000   0.16000   0.16000
     Eigenvalues ---    0.16000   0.16000   0.16000   0.16030   0.17030
     Eigenvalues ---    0.19226   0.22000   0.22000   0.22000   0.22220
     Eigenvalues ---    0.22496   0.28516   0.28888   0.30911   0.37069
     Eigenvalues ---    0.37230   0.37230   0.37230   0.37230   0.37230
     Eigenvalues ---    0.37230   0.37230   0.37237   0.38342   0.53879
     Eigenvalues ---    0.53930   0.54149   0.56574
 RFO step:  Lambda=-1.51154852D-03 EMin= 2.36824059D-03
 Quartic linear search produced a step of -0.08279.
 Iteration  1 RMS(Cart)=  0.03787460 RMS(Int)=  0.00007412
 Iteration  2 RMS(Cart)=  0.00010888 RMS(Int)=  0.00000000
 Iteration  3 RMS(Cart)=  0.00000001 RMS(Int)=  0.00000000
 ClnCor:  largest displacement from symmetrization is 1.55D-12 for atom     9.
 Variable       Old X    -DE/DX   Delta X   Delta X   Delta X     New X
                                 (Linear)    (Quad)   (Total)
    R1        2.05440   0.00036  -0.00127   0.00234   0.00107   2.05547
    R2        2.05201  -0.00030  -0.00108   0.00049  -0.00059   2.05143
    R3        2.54066   0.00069   0.00047   0.00072   0.00119   2.54185
    R4        2.05868   0.00095  -0.00159   0.00419   0.00260   2.06127
    R5        2.71961   0.00600   0.00858   0.00868   0.01727   2.73687
    R6        2.05986  -0.00023  -0.00150   0.00116  -0.00035   2.05951
    R7        2.55723   0.00401  -0.00088   0.00798   0.00709   2.56433
    R8        2.06326  -0.00089  -0.00108  -0.00101  -0.00209   2.06117
    R9        2.71324   0.01352   0.01087   0.02981   0.04068   2.75392
   R10        2.05595   0.00049  -0.00159   0.00306   0.00148   2.05743
   R11        2.55468   0.00566   0.00064   0.00881   0.00945   2.56413
   R12        2.05604   0.00035  -0.00160   0.00273   0.00113   2.05717
   R13        2.73167   0.01219   0.00963   0.02709   0.03673   2.76840
   R14        2.06299  -0.00116  -0.00104  -0.00173  -0.00277   2.06021
   R15        2.53542   0.00355   0.00016   0.00602   0.00618   2.54160
   R16        2.05530  -0.00086  -0.00115  -0.00080  -0.00195   2.05335
   R17        2.05056   0.00033  -0.00117   0.00217   0.00100   2.05156
    A1        2.04078  -0.00046   0.00294  -0.00660  -0.00367   2.03711
    A2        2.11654   0.00047  -0.00094   0.00395   0.00301   2.11955
    A3        2.12587  -0.00001  -0.00199   0.00265   0.00066   2.12653
    A4        2.08599  -0.00120   0.00144  -0.00831  -0.00687   2.07912
    A5        2.17368   0.00025  -0.00466   0.00701   0.00234   2.17602
    A6        2.02352   0.00096   0.00322   0.00130   0.00452   2.02804
    A7        2.02679   0.00047   0.00315  -0.00098   0.00217   2.02895
    A8        2.15520   0.00080  -0.00368   0.00801   0.00433   2.15953
    A9        2.10120  -0.00126   0.00053  -0.00702  -0.00649   2.09471
   A10        2.06212  -0.00421   0.00045  -0.02368  -0.02322   2.03889
   A11        2.22672   0.00225   0.01396  -0.00866   0.00530   2.23201
   A12        1.99435   0.00196  -0.01441   0.03233   0.01793   2.01228
   A13        2.00246  -0.00048   0.00340  -0.00429  -0.00089   2.00157
   A14        2.20639   0.00397  -0.00463   0.02241   0.01779   2.22418
   A15        2.07434  -0.00349   0.00122  -0.01813  -0.01690   2.05744
   A16        2.07764  -0.00302   0.00137  -0.01604  -0.01467   2.06297
   A17        2.20027   0.00350  -0.00460   0.02044   0.01584   2.21611
   A18        2.00527  -0.00048   0.00323  -0.00441  -0.00117   2.00410
   A19        1.98790   0.00154  -0.01351   0.02896   0.01545   2.00335
   A20        2.22527   0.00254   0.01384  -0.00728   0.00655   2.23183
   A21        2.07001  -0.00409  -0.00032  -0.02168  -0.02200   2.04801
   A22        2.14055  -0.00005  -0.00189   0.00234   0.00045   2.14100
   A23        2.10419   0.00117  -0.00140   0.00847   0.00707   2.11125
   A24        2.03845  -0.00112   0.00329  -0.01081  -0.00752   2.03093
    D1        3.14159   0.00000   0.00000   0.00000   0.00000   3.14159
    D2        0.00000   0.00000   0.00000   0.00000   0.00000   0.00000
    D3        0.00000   0.00000   0.00000   0.00000   0.00000   0.00000
    D4        3.14159   0.00000   0.00000   0.00000   0.00000   3.14159
    D5        0.00000   0.00000   0.00000   0.00000   0.00000   0.00000
    D6        3.14159   0.00000   0.00000   0.00000   0.00000   3.14159
    D7        3.14159   0.00000   0.00000   0.00000   0.00000   3.14159
    D8        0.00000   0.00000   0.00000   0.00000   0.00000   0.00000
    D9        0.00000   0.00000   0.00000   0.00000   0.00000   0.00000
   D10        3.14159   0.00000   0.00000   0.00000   0.00000   3.14159
   D11        3.14159   0.00000   0.00000   0.00000   0.00000   3.14159
   D12        0.00000   0.00000   0.00000   0.00000   0.00000   0.00000
   D13        3.14159   0.00000   0.00000   0.00000   0.00000   3.14159
   D14        0.00000   0.00000   0.00000   0.00000   0.00000   0.00000
   D15        0.00000   0.00000   0.00000   0.00000   0.00000   0.00000
   D16        3.14159   0.00000   0.00000   0.00000   0.00000   3.14159
   D17        0.00000   0.00000   0.00000   0.00000   0.00000   0.00000
   D18        3.14159   0.00000   0.00000   0.00000   0.00000   3.14159
   D19        3.14159   0.00000   0.00000   0.00000   0.00000   3.14159
   D20        0.00000   0.00000   0.00000   0.00000   0.00000   0.00000
   D21        3.14159   0.00000   0.00000   0.00000   0.00000   3.14159
   D22        0.00000   0.00000   0.00000   0.00000   0.00000   0.00000
   D23        0.00000   0.00000   0.00000   0.00000   0.00000   0.00000
   D24        3.14159   0.00000   0.00000   0.00000   0.00000   3.14159
   D25        0.00000   0.00000   0.00000   0.00000   0.00000   0.00000
   D26        3.14159   0.00000   0.00000   0.00000   0.00000   3.14159
   D27        3.14159   0.00000   0.00000   0.00000   0.00000   3.14159
   D28        0.00000   0.00000   0.00000   0.00000   0.00000   0.00000
         Item               Value     Threshold  Converged?
 Maximum Force            0.013516     0.000450     NO 
 RMS     Force            0.002805     0.000300     NO 
 Maximum Displacement     0.116367     0.001800     NO 
 RMS     Displacement     0.037860     0.001200     NO 
 Predicted change in Energy=-8.937379D-04
 GradGradGradGradGradGradGradGradGradGradGradGradGradGradGradGradGradGrad

                          Input orientation:                          
 ---------------------------------------------------------------------
 Center     Atomic      Atomic             Coordinates (Angstroms)
 Number     Number       Type             X           Y           Z
 ---------------------------------------------------------------------
      1          6           0       -6.438753    0.625138    0.000000
      2          1           0       -6.242578    1.695009    0.000000
      3          1           0       -7.480542    0.319957    0.000000
      4          6           0       -5.436517   -0.271960    0.000000
      5          1           0       -5.676442   -1.336025    0.000000
      6          6           0       -4.028192    0.065929    0.000000
      7          1           0       -3.787502    1.128864    0.000000
      8          6           0       -3.032158   -0.855656    0.000000
      9          1           0       -3.332009   -1.904355    0.000000
     10          6           0       -1.594158   -0.619186    0.000000
     11          1           0       -0.985027   -1.521586    0.000000
     12          6           0       -0.955097    0.577781    0.000000
     13          1           0       -1.559147    1.483425    0.000000
     14          6           0        0.492331    0.803826    0.000000
     15          1           0        0.791139    1.852297    0.000000
     16          6           0        1.471967   -0.117709    0.000000
     17          1           0        1.272479   -1.185824    0.000000
     18          1           0        2.516668    0.177605    0.000000
 ---------------------------------------------------------------------
                    Distance matrix (angstroms):
                    1          2          3          4          5
     1  C    0.000000
     2  H    1.087708   0.000000
     3  H    1.085568   1.850222   0.000000
     4  C    1.345088   2.125724   2.128004   0.000000
     5  H    2.104110   3.083452   2.448888   1.090779   0.000000
     6  C    2.474574   2.749073   3.461683   1.448291   2.163840
     7  H    2.698680   2.519508   3.780592   2.163691   3.105443
     8  C    3.714518   4.100328   4.601107   2.474196   2.687563
     9  H    4.006270   4.628913   4.707217   2.663394   2.412336
    10  C    5.001844   5.192620   5.960831   3.858016   4.144744
    11  H    5.861020   6.163467   6.751518   4.623563   4.695084
    12  C    5.483861   5.404225   6.530536   4.561270   5.094482
    13  H    4.954515   4.688208   6.034614   4.256216   4.990132
    14  C    6.933388   6.793615   7.987542   6.025658   6.529374
    15  H    7.333298   7.035475   8.412417   6.579982   7.210756
    16  C    7.945522   7.924655   8.963201   6.910206   7.251486
    17  H    7.921029   8.048310   8.881597   6.770951   6.950545
    18  H    8.966596   8.889707   9.998223   7.965881   8.331754
                    6          7          8          9         10
     6  C    0.000000
     7  H    1.089845   0.000000
     8  C    1.356984   2.123409   0.000000
     9  H    2.089663   3.067229   1.090725   0.000000
[...]
 ! A1    A(2,1,3)              116.7069         -DE/DX =    0.0                 !
 ! A2    A(2,1,4)              121.5386         -DE/DX =    0.0                 !
 ! A3    A(3,1,4)              121.7545         -DE/DX =    0.0                 !
 ! A4    A(1,4,5)              119.1508         -DE/DX =    0.0                 !
 ! A5    A(1,4,6)              124.5326         -DE/DX =    0.0                 !
 ! A6    A(5,4,6)              116.3166         -DE/DX =    0.0                 !
 ! A7    A(4,6,7)              116.3544         -DE/DX =    0.0                 !
 ! A8    A(4,6,8)              123.5914         -DE/DX =    0.0                 !
 ! A9    A(7,6,8)              120.0543         -DE/DX =    0.0                 !
 ! A10   A(6,8,9)              117.0708         -DE/DX =    0.0                 !
 ! A11   A(6,8,10)             127.8052         -DE/DX =    0.0                 !
 ! A12   A(9,8,10)             115.124          -DE/DX =    0.0                 !
 ! A13   A(8,10,11)            114.7953         -DE/DX =    0.0                 !
 ! A14   A(8,10,12)            127.1665         -DE/DX =    0.0                 !
 ! A15   A(11,10,12)           118.0382         -DE/DX =    0.0                 !
 ! A16   A(10,12,13)           118.4085         -DE/DX =    0.0                 !
 ! A17   A(10,12,14)           126.6647         -DE/DX =    0.0                 !
 ! A18   A(13,12,14)           114.9268         -DE/DX =    0.0                 !
 ! A19   A(12,14,15)           114.6189         -DE/DX =    0.0                 !
 ! A20   A(12,14,16)           127.8598         -DE/DX =    0.0                 !
 ! A21   A(15,14,16)           117.5213         -DE/DX =    0.0                 !
 ! A22   A(14,16,17)           122.7007         -DE/DX =    0.0                 !
 ! A23   A(14,16,18)           120.9764         -DE/DX =    0.0                 !
 ! A24   A(17,16,18)           116.3229         -DE/DX =    0.0                 !
 ! D1    D(2,1,4,5)            180.0            -DE/DX =    0.0                 !
 ! D2    D(2,1,4,6)              0.0            -DE/DX =    0.0                 !
 ! D3    D(3,1,4,5)              0.0            -DE/DX =    0.0                 !
 ! D4    D(3,1,4,6)            180.0            -DE/DX =    0.0                 !
 ! D5    D(1,4,6,7)              0.0            -DE/DX =    0.0                 !
 ! D6    D(1,4,6,8)            180.0            -DE/DX =    0.0                 !
 ! D7    D(5,4,6,7)            180.0            -DE/DX =    0.0                 !
 ! D8    D(5,4,6,8)              0.0            -DE/DX =    0.0                 !
 ! D9    D(4,6,8,9)              0.0            -DE/DX =    0.0                 !
 ! D10   D(4,6,8,10)           180.0            -DE/DX =    0.0                 !
 ! D11   D(7,6,8,9)            180.0            -DE/DX =    0.0                 !
 ! D12   D(7,6,8,10)             0.0            -DE/DX =    0.0                 !
 ! D13   D(6,8,10,11)          180.0            -DE/DX =    0.0                 !
 ! D14   D(6,8,10,12)            0.0            -DE/DX =    0.0                 !
 ! D15   D(9,8,10,11)            0.0            -DE/DX =    0.0                 !
 ! D16   D(9,8,10,12)          180.0            -DE/DX =    0.0                 !
 ! D17   D(8,10,12,13)           0.0            -DE/DX =    0.0                 !
 ! D18   D(8,10,12,14)         180.0            -DE/DX =    0.0                 !
 ! D19   D(11,10,12,13)        180.0            -DE/DX =    0.0                 !
 ! D20   D(11,10,12,14)          0.0            -DE/DX =    0.0                 !
 ! D21   D(10,12,14,15)        180.0            -DE/DX =    0.0                 !
 ! D22   D(10,12,14,16)          0.0            -DE/DX =    0.0                 !
 ! D23   D(13,12,14,15)          0.0            -DE/DX =    0.0                 !
 ! D24   D(13,12,14,16)        180.0            -DE/DX =    0.0                 !
 ! D25   D(12,14,16,17)          0.0            -DE/DX =    0.0                 !
 ! D26   D(12,14,16,18)        180.0            -DE/DX =    0.0                 !
 ! D27   D(15,14,16,17)        180.0            -DE/DX =    0.0                 !
 ! D28   D(15,14,16,18)          0.0            -DE/DX =    0.0                 !
 --------------------------------------------------------------------------------
 GradGradGradGradGradGradGradGradGradGradGradGradGradGradGradGradGradGrad

 1\1\GINC-NISER-THINKCENTRE-M93P\Freq\RB3LYP\6-31G(d)\C8H10\STUDENT\02-
 Mar-2021\0\\#N Geom=AllCheck Guess=TCheck SCRF=Check GenChk RB3LYP/6-3
 1G(d) Freq\\Title Card Required\\0,1\C,-6.428760102,0.6258905945,0.\H,
 -6.2328580246,1.6957833803,0.\H,-7.4704974452,0.3206587868,0.\C,-5.428
 3189792,-0.2722209116,0.\H,-5.6692945245,-1.3359732214,0.\C,-4.0213027
 248,0.0669398196,0.\H,-3.7798143441,1.1297003408,0.\C,-3.0273415941,-0
 .8552861298,0.\H,-3.3239169936,-1.9043914226,0.\C,-1.5941554058,-0.619
 5988476,0.\H,-0.9830142988,-1.5210960951,0.\C,-0.9616431805,0.57865940
 76,0.\H,-1.5668565673,1.4839551727,0.\C,0.4817713686,0.8030636847,0.\H
 ,0.7781417033,1.8516695982,0.\C,1.4597824258,-0.1186735248,0.\H,1.2598
 003486,-1.1869993468,0.\H,2.5047390984,0.1754493245,0.\\Version=EM64L-
 G09RevC.01\State=1-A'\HF=-310.7938896\RMSD=2.291e-09\RMSF=1.820e-05\Ze
 roPoint=0.1523378\Thermal=0.1607952\Dipole=0.0031256,-0.0052734,0.\Dip
 oleDeriv=-0.2686389,0.1032188,0.,0.00152,0.0763714,0.,0.,0.,-0.316262,
 0.0293376,-0.0637365,0.,-0.0148212,-0.0925188,0.,0.,0.,0.1386287,-0.10
 78926,-0.0223348,0.,-0.0377482,0.0299309,0.,0.,0.,0.1375653,0.29589,-0
 .0309722,0.,0.2879749,0.1234941,0.,0.,0.,-0.0746959,0.0033276,0.001424
 4,0.,-0.0915555,-0.1168536,0.,0.,0.,0.1077228,-0.0420797,-0.024728,0.,
 -0.11852,0.0397636,0.,0.,0.,-0.0877508,0.0017638,-0.0283509,0.,-0.0520
 092,-0.0984321,0.,0.,0.,0.1082137,0.0325474,0.0993266,0.,0.431193,0.16
 74132,0.,0.,0.,-0.1269114,-0.0023515,-0.062715,0.,-0.0750445,-0.111180
 5,0.,0.,0.,0.1113057,0.1967401,-0.074817,0.,-0.40097,0.0504369,0.,0.,0
 .,-0.0997288,-0.0360722,0.0832892,0.,0.0852752,-0.061554,0.,0.,0.,0.10
 62398,-0.0258099,-0.0488742,0.,-0.3978407,0.0212557,0.,0.,0.,-0.106701
 1,-0.0201536,0.0792345,0.,0.0698919,-0.0613752,0.,0.,0.,0.1074091,0.31
 49079,0.0608671,0.,0.4472319,0.158225,0.,0.,0.,-0.0898254,-0.0168046,-
 0.028663,0.,-0.0963428,-0.1250342,0.,0.,0.,0.1096342,-0.2838003,0.0417
 728,0.,0.0145815,0.0490664,0.,0.,0.,-0.2938113,0.0388808,-0.0603234,0.
 ,-0.0186822,-0.09072,0.,0.,0.,0.1351988,-0.1097919,-0.0236185,0.,-0.03
 41344,0.0417109,0.,0.,0.,0.1337687\Polar=228.3531191,-11.4783361,83.06
 79525,0.,0.,29.0169974\PG=CS [SG(C8H10)]\NImag=1\\0.75998796,-0.088870
 25,0.72357659,0.,0.,0.10094257,-0.07066444,-0.05544612,0.,0.06452058,-
 0.05183792,-0.32767040,0.,0.05470158,0.35034092,0.,0.,-0.03304417,0.,0
 .,0.02176240,-0.32057896,-0.07959375,0.,-0.00140214,0.00047670,0.,0.34
 038313,-0.08415208,-0.08440471,0.,-0.02717501,-0.00445976,0.,0.0848982
 3,0.07977198,0.,0.,-0.03119069,0.,0.,0.00220844,0.,0.,0.02128530,-0.32
 880291,0.19354784,0.,0.00910152,-0.00564701,0.,-0.01825848,0.02331547,
 0.,0.70130852,0.20908956,-0.30802063,0.,0.02458142,-0.01947498,0.,-0.0
 0965789,0.00996603,0.,-0.10521371,0.75210379,0.,0.,-0.04901024,0.,0.,0
 .00452733,0.,0.,0.00411384,0.,0.,0.13172554,0.00816248,0.02583034,0.,-
 0.00291344,0.00325824,0.,0.00106121,-0.00016589,0.,-0.07244550,-0.0600
 6277,0.,0.07542343,-0.00601036,-0.01937156,0.,0.00294435,-0.00099390,0
 .,0.00022236,0.00130365,0.,-0.05900045,-0.31257538,0.,0.06297286,0.336
 29366,0.,0.,0.00507201,0.,0.,0.01106096,0.,0.,-0.00692907,0.,0.,-0.041
 83349,0.,0.,0.02743996,-0.05201899,0.01522606,0.,0.00163047,-0.0024397
 3,0.,-0.00043272,0.00182403,0.,-0.23904430,-0.06295084,0.,-0.00572454,
 -0.00089093,0.,0.68647838,0.02913798,0.00951796,0.,0.00155382,0.001227
 07,0.,0.00408621,-0.00319659,0.,-0.06142215,-0.12037984,0.,-0.03091238
 ,-0.00724292,0.,-0.08273015,0.74182651,0.,0.,0.00624383,0.,0.,-0.00741
 112,0.,0.,0.01173665,0.,0.,-0.06029805,0.,0.,0.00308253,0.,0.,0.129525
 78,0.00166134,-0.00123296,0.,-0.00014621,0.00123174,0.,0.00027613,0.00
 042504,0.,-0.00527040,-0.03117001,0.,-0.00518478,-0.00099326,0.,-0.072
 87261,-0.05822745,0.,0.07557622,0.00112933,0.00114579,0.,-0.00077875,0
 .00057068,0.,-0.00006571,0.00029683,0.,-0.00053321,-0.00693667,0.,-0.0
 0082350,0.00056736,0.,-0.05830657,-0.31371617,0.,0.06436944,0.33788560
 ,0.,0.,-0.00159472,0.,0.,0.00034336,0.,0.,-0.00028239,0.,0.,0.00338204
 ,0.,0.,0.00365659,0.,0.,-0.04102102,0.,0.,0.02468040,0.00756009,-0.012
 49817,0.,-0.00001457,0.00048893,0.,-0.00089248,0.00083035,0.,-0.060427
 96,0.03120280,0.,0.00155496,0.00164630,0.,-0.27289144,0.17123461,0.,0.
 01106853,-0.00590170,0.,0.68337356,-0.00904330,0.00360128,0.,-0.000015
 14,0.00030177,0.,-0.00070691,0.00096410,0.,0.01483184,0.00745129,0.,-0
 .00199232,0.00099335,0.,0.17580892,-0.29810087,0.,0.02380768,-0.020131
 25,0.,-0.08256087,0.72158981,0.,0.,0.00260710,0.,0.,0.00010569,0.,0.,-
 0.00007197,0.,0.,0.00512597,0.,0.,-0.00168950,0.,0.,-0.05473261,0.,0.,
 0.00523047,0.,0.,0.12890321,0.00010355,-0.00007647,0.,-0.00006808,-0.0
 0021350,0.,0.00002054,-0.00010020,0.,0.00088582,0.00230828,0.,-0.00017
 311,-0.00073816,0.,0.00875595,0.02385754,0.,-0.00299741,0.00286903,0.,
 -0.07842554,-0.06988510,0.,0.08555158,0.00042232,0.00049149,0.,-0.0002
 4851,0.00016775,0.,0.00007454,-0.00000540,0.,-0.00262584,0.00094852,0.
 ,0.00135179,0.00073389,0.,-0.00632746,-0.02320992,0.,0.00322077,-0.001
 48135,0.,-0.07024989,-0.30724803,0.,0.07405890,0.33028824,0.,0.,0.0001
 0924,0.,0.,0.00035255,0.,0.,0.00021156,0.,0.,-0.00702888,0.,0.,0.00022
 656,0.,0.,0.00505749,0.,0.,0.01033075,0.,0.,-0.03929244,0.,0.,0.025922
 41,-0.00555725,0.00435516,0.,-0.00003215,-0.00012052,0.,-0.00000756,0.
 00017870,0.,0.01562000,-0.00040703,0.,0.00023597,-0.00022063,0.,-0.054
 81552,0.01495178,0.,0.00013873,-0.00168598,0.,-0.24554037,-0.04786826,
 0.,-0.00870316,0.00110003,0.,0.63221846,-0.00253863,0.00323642,0.,-0.0
 0012959,-0.00006456,0.,0.00029674,-0.00017510,0.,0.00983712,-0.0043305
 9,0.,0.00039909,0.00019612,0.,0.00657119,0.01938002,0.,-0.00126617,0.0
 0035602,0.,0.00555258,-0.11653756,0.,-0.03199982,-0.00326000,0.,0.0485
 9527,0.77264429,0.,0.,0.00004406,0.,0.,0.00008591,0.,0.,-0.00116585,0.
 ,0.,0.01019041,0.,0.,-0.00017702,0.,0.,0.00479442,0.,0.,-0.00580476,0.
 ,0.,-0.05619270,0.,0.,0.00290169,0.,0.,0.12932499,-0.00056849,-0.00019
 873,0.,0.00002225,0.00001122,0.,-0.00012814,0.00009905,0.,-0.00002174,
 0.00141023,0.,-0.00003569,-0.00007999,0.,-0.00482597,-0.00362948,0.,0.
 00019928,0.00011974,0.,-0.01766308,0.02762690,0.,0.00095224,-0.0001572
 5,0.,-0.14384322,0.12476692,0.,0.15600600,-0.00001479,0.00002365,0.,-0
 .00001324,0.00000621,0.,-0.00000257,0.00000452,0.,-0.00006583,0.000075
 28,0.,0.00003653,0.00001405,0.,-0.00133848,0.00055759,0.,-0.00020457,0
 .00010662,0.,-0.00579528,0.00535308,0.,-0.00000419,0.00126377,0.,0.126
 20611,-0.24329390,0.,-0.13475027,0.26204234,0.,0.,-0.00017094,0.,0.,0.
 00000363,0.,0.,0.00003428,0.,0.,-0.00004709,0.,0.,0.00003662,0.,0.,0.0
 0278957,0.,0.,-0.00017277,0.,0.,0.00352527,0.,0.,-0.00127798,0.,0.,-0.
 04131921,0.,0.,0.02499534,0.00187831,-0.00185385,0.,-0.00002463,0.0001
 1151,0.,-0.00003862,0.00000900,0.,-0.00535261,0.00108044,0.,0.00004562
 ,0.00018753,0.,0.01136592,-0.00999588,0.,-0.00076359,0.00016686,0.,-0.
 04047931,-0.02809947,0.,-0.00583192,-0.00076250,0.,-0.16561153,-0.1279
 7184,0.,0.01351764,0.01841130,0.,0.62607043,0.00283403,-0.00231647,0.,
 0.00009122,0.00002429,0.,-0.00008250,-0.00008444,0.,-0.00695626,0.0002
 9278,0.,-0.00030618,-0.00008199,0.,0.01633416,-0.00600436,0.,0.0009707
 9,-0.00027174,0.,-0.03822811,0.00583327,0.,0.00139782,0.00137317,0.,-0
 .12494043,-0.40275831,0.,-0.01165247,-0.02485994,0.,0.04945181,0.77400
 414,0.,0.,-0.00000351,0.,0.,-0.00007513,0.,0.,0.00010321,0.,0.,-0.0006
 6517,0.,0.,0.00002000,0.,0.,0.00052680,0.,0.,0.00044401,0.,0.,0.005135
 71,0.,0.,0.00267317,0.,0.,-0.05618557,0.,0.,0.00583308,0.,0.,0.1278297
 5,0.00009725,-0.00002992,0.,-0.00001095,-0.00000220,0.,0.00001791,-0.0
 0001327,0.,-0.00016026,0.00010216,0.,0.00003054,0.00001637,0.,-0.00021
 368,-0.00104338,0.,-0.00180329,-0.00034848,0.,-0.00092686,0.00053588,0
 .,0.00018723,0.00022581,0.,0.01337796,-0.01197958,0.,-0.00089912,-0.00
 300310,0.,-0.14237796,0.12439039,0.,0.15437284,-0.00010234,-0.00005996
 ,0.,-0.00003207,0.00001310,0.,0.00001805,0.00001321,0.,-0.00021893,0.0
 0077551,0.,0.00022447,0.00005815,0.,-0.00008945,-0.00091026,0.,-0.0006
 3708,0.00109554,0.,0.00135035,0.00127527,0.,-0.00007935,0.00015626,0.,
 0.01848368,-0.02461475,0.,-0.00300822,-0.00366043,0.,0.12565654,-0.245
 09534,0.,-0.13428625,0.26374478,0.,0.,0.00003377,0.,0.,-0.00000394,0.,
 0.,-0.00008132,0.,0.,-0.00002892,0.,0.,0.00002342,0.,0.,0.00019242,0.,
 0.,0.00118981,0.,0.,-0.00663584,0.,0.,-0.00018911,0.,0.,0.00586421,0.,
 0.,0.01129644,0.,0.,-0.04033620,0.,0.,0.02415014,-0.00129367,0.0014478
 8,0.,-0.00002064,-0.00004651,0.,0.00006746,-0.00000736,0.,0.00374447,-
 0.00099517,0.,0.00002830,0.00004240,0.,-0.00731470,0.00516656,0.,0.000
 00431,-0.00010821,0.,0.01834584,-0.00273689,0.,0.00045432,0.00018315,0
 .,-0.03869001,-0.03400184,0.,-0.00099295,0.00142800,0.,-0.23861045,0.0
 0501719,0.,-0.01709839,-0.00583328,0.,0.68246991,0.00074054,-0.0001212
 0,0.,-0.00003417,0.00001493,0.,0.00006267,-0.00002404,0.,-0.00139880,0
 .00004341,0.,0.00020582,0.00014739,0.,0.00228472,-0.00091521,0.,-0.000
 28436,0.00054070,0.,-0.00293427,-0.00505117,0.,-0.00138789,-0.00015934
 ,0.,-0.02772878,0.00546047,0.,0.00037099,0.00112980,0.,-0.04366345,-0.
 11456163,0.,0.02789191,0.00520148,0.,-0.10760194,0.74399483,0.,0.,-0.0
 0004714,0.,0.,0.00008275,0.,0.,0.00004256,0.,0.,-0.00020917,0.,0.,0.00
 001850,0.,0.,-0.00047730,0.,0.,-0.00046239,0.,0.,0.00882329,0.,0.,0.00
 018293,0.,0.,0.00474193,0.,0.,-0.00664346,0.,0.,-0.05780702,0.,0.,0.00
 369882,0.,0.,0.12964991,-0.00011590,-0.00000976,0.,-0.00000139,0.00000
 868,0.,-0.00001570,0.00001291,0.,0.00010574,0.00012182,0.,0.00001693,-
 0.00000636,0.,-0.00016112,-0.00006974,0.,-0.00002564,0.00003823,0.,0.0
 0047225,-0.00138776,0.,-0.00048293,-0.00012209,0.,-0.00610018,0.001417
 86,0.,0.00018578,-0.00007221,0.,-0.00890717,-0.03204926,0.,0.00095198,
 0.00005598,0.,-0.07843859,-0.07213203,0.,0.08575389,-0.00009833,-0.000
 03936,0.,0.00000261,0.00000657,0.,-0.00001689,0.00000994,0.,0.00005949
 ,0.00012245,0.,-0.00000278,-0.00001314,0.,-0.00008295,-0.00015098,0.,0
 .00000765,0.00001014,0.,0.00015189,-0.00011356,0.,-0.00011723,-0.00002
 222,0.,-0.00088556,0.00131793,0.,0.00024172,0.00017391,0.,0.00121266,-
 0.00337541,0.,-0.00020112,0.00123890,0.,-0.07236865,-0.30855175,0.,0.0
 7514551,0.33086095,0.,0.,-0.00000107,0.,0.,0.00000449,0.,0.,0.00000304
 ,0.,0.,-0.00001640,0.,0.,0.00000217,0.,0.,0.00001233,0.,0.,0.00001271,
 0.,0.,0.00015308,0.,0.,-0.00020288,0.,0.,0.00240869,0.,0.,-0.00013794,
 0.,0.,0.00302180,0.,0.,-0.00103586,0.,0.,-0.04087174,0.,0.,0.02709843,
 0.00017556,-0.00058943,0.,0.00002040,0.00001967,0.,-0.00006676,0.00002
 138,0.,-0.00103237,0.00057081,0.,-0.00006785,-0.00008137,0.,0.00203121
 ,-0.00200347,0.,0.00011130,-0.00009908,0.,-0.00518705,0.00200932,0.,-0
 .00016610,-0.00012838,0.,0.00752498,0.01124347,0.,-0.00030921,-0.00020
 343,0.,-0.04540429,0.01125603,0.,-0.00472132,-0.00109504,0.,-0.3155989
 1,0.21051825,0.,0.00840015,-0.00653724,0.,0.74738089,-0.00068539,0.000
 41164,0.,-0.00000046,-0.00001461,0.,-0.00000604,0.00001543,0.,0.001519
 43,-0.00010704,0.,-0.00003234,-0.00003916,0.,-0.00270460,0.00140071,0.
 ,0.00001412,-0.00008577,0.,0.00572853,-0.00100277,0.,0.00002848,-0.000
 06827,0.,-0.01026180,-0.00650715,0.,-0.00096575,-0.00048883,0.,0.01636
 664,0.02006475,0.,-0.00344357,0.00058585,0.,0.19167617,-0.31682170,0.,
 0.02556990,-0.02171023,0.,-0.08960308,0.73424998,0.,0.,0.00001738,0.,0
 .,-0.00000235,0.,0.,-0.00001881,0.,0.,0.00012205,0.,0.,-0.00001761,0.,
 0.,-0.00008212,0.,0.,-0.00006291,0.,0.,-0.00049039,0.,0.,0.00001936,0.
 ,0.,0.00061123,0.,0.,0.00034711,0.,0.,0.00618831,0.,0.,0.00200542,0.,0
 .,-0.04962828,0.,0.,0.00512419,0.,0.,0.09986942,0.00003650,0.00000151,
 0.,-0.00000149,-0.00000134,0.,0.00000842,-0.00000386,0.,-0.00002444,-0
 .00004171,0.,-0.00000075,0.00000412,0.,0.00013835,0.00003245,0.,-0.000
 00502,-0.00000226,0.,-0.00001053,-0.00030029,0.,-0.00001123,0.00001550
 ,0.,-0.00050904,0.00098948,0.,-0.00174460,-0.00059640,0.,0.00024530,-0
 .00121486,0.,0.00023018,-0.00020795,0.,0.01165502,0.02367126,0.,-0.002
 74025,0.00327699,0.,-0.07132917,-0.05549479,0.,0.06585419,-0.00000103,
 -0.00001426,0.,-0.00000033,0.00000389,0.,-0.00000403,0.00000369,0.,-0.
 00003046,0.00003442,0.,0.00000631,0.00000426,0.,-0.00007447,-0.0000892
 3,0.,-0.00000790,0.00001823,0.,-0.00013148,0.00051258,0.,0.00003566,0.
 00001001,0.,0.00027840,-0.00014485,0.,-0.00028258,0.00098599,0.,-0.001
 98685,0.00041621,0.,0.00013330,0.00008955,0.,-0.00567612,-0.01921113,0
 .,0.00332241,-0.00114950,0.,-0.05314257,-0.32812030,0.,0.05725157,0.35
 121405,0.,0.,-0.00000770,0.,0.,0.00002764,0.,0.,-0.00003709,0.,0.,0.00
 016593,0.,0.,0.00000580,0.,0.,-0.00007483,0.,0.,-0.00002534,0.,0.,-0.0
 0034738,0.,0.,0.00001213,0.,0.,0.00050633,0.,0.,0.00115598,0.,0.,-0.00
 725121,0.,0.,-0.00014100,0.,0.,0.00491797,0.,0.,0.01218838,0.,0.,-0.03
 481072,0.,0.,0.02105224,-0.00006243,-0.00000938,0.,0.00000492,0.000000
 45,0.,-0.00001322,0.00000351,0.,0.00007492,0.00003161,0.,-0.00001379,-
 0.00001479,0.,-0.00008469,0.00001312,0.,0.00003313,-0.00003918,0.,0.00
 008397,-0.00002425,0.,-0.00005174,-0.00003089,0.,0.00029390,0.00021777
 ,0.,0.00014900,-0.00001759,0.,0.00027886,0.00368662,0.,-0.00105407,-0.
 00019912,0.,-0.01871134,-0.00858047,0.,0.00110215,0.00021223,0.,-0.321
 76147,-0.07770545,0.,-0.00179143,0.00031016,0.,0.34152333,0.00000066,0
 .00001374,0.,-0.00000163,0.00000104,0.,0.00000077,0.00000065,0.,0.0000
 0146,0.00001163,0.,0.00001269,0.00000617,0.,-0.00011344,0.00000648,0.,
 -0.00002348,0.00002944,0.,0.00011344,0.00030940,0.,0.00004618,0.000021
 43,0.,-0.00003014,-0.00090449,0.,0.00007796,0.00056627,0.,0.00167955,-
 0.00259899,0.,0.00105504,0.00009313,0.,0.02441461,0.00888418,0.,0.0001
 5590,0.00138534,0.,-0.08215586,-0.08176253,0.,-0.02737941,-0.00456363,
 0.,0.08214567,0.07850074,0.,0.,0.00000021,0.,0.,-0.00002844,0.,0.,0.00
 003830,0.,0.,-0.00021570,0.,0.,0.00000156,0.,0.,0.00013523,0.,0.,0.000
 15614,0.,0.,-0.00015697,0.,0.,-0.00000853,0.,0.,-0.00062876,0.,0.,-0.0
 0024793,0.,0.,0.01054797,0.,0.,-0.00000224,0.,0.,0.00398783,0.,0.,-0.0
 0776343,0.,0.,-0.02919128,0.,0.,0.00266287,0.,0.,0.02071315\\-0.000027
 13,-0.00000015,0.,0.00001735,-0.00000020,0.,0.00001114,-0.00000884,0.,
 0.00000740,0.00002900,0.,0.00001264,-0.00001480,0.,-0.00001485,-0.0000
 3658,0.,0.00000149,0.00000563,0.,-0.00004281,0.00001373,0.,0.00000118,
 -0.00000391,0.,0.00004355,0.00003974,0.,-0.00000250,-0.00001038,0.,0.0
 0002922,-0.00003902,0.,-0.00000612,0.00000389,0.,-0.00000760,0.0000280
 9,0.,-0.00001260,0.00000014,0.,0.00002982,-0.00004541,0.,-0.00002921,0
 .00001535,0.,-0.00001097,0.00002371,0.\\\@


 10 WHATSOEVER THY HAND FINDETH TO DO, DO IT WITH THY  
 MIGHT. FOR THERE IS NO WORK, NOR DEVICE, NOR KNOWLEDGE, NOR  
 WISDOM, IN THE GRAVE, WHITHER THOU GOEST.                    
 11 I RETURNED AND SAW UNDER THE SUN, THAT THE RACE IS NOT TO 
 THE SWIFT, NOR THE BATTLE TO THE STRONG, NEITHER YET BREAD TO
 THE WISE, NOR YET RICHES TO MEN OF UNDERSTANDING, NOR YET    
 FAVOR TO MEN OF SKILL. BUT TIME AND CHANCE HAPPEN TO THEM ALL.
 12 FOR MAN ALSO KNOWETH NOT HIS TIME. AS THE FISHES   
 THAT ARE TAKEN IN AN EVIL NET, AND AS THE BIRDS THAT ARE     
 CAUGHT IN THE SNARE. SO ARE THE SONS OF MEN SNARED IN AN EVIL
 TIME, WHEN IT FALLETH SUDDENLY UPON THEM.
                                         ECCLESIASTES 9
 Job cpu time:  0 days  0 hours  4 minutes  9.4 seconds.
 File lengths (MBytes):  RWF=     49 Int=      0 D2E=      0 Chk=      3 Scr=      1
 Normal termination of Gaussian 09 at Tue Mar  2 16:35:57 2021.
