 Entering Gaussian System, Link 0=g09
 Input=3.com
 Output=3.log
 Initial command:
 /home/student/g09/l1.exe /home/student/singh/octa/Gau-23538.inp -scrdir=/home/student/singh/octa/
 Entering Link 1 = /home/student/g09/l1.exe PID=     23540.
  
 Copyright (c) 1988,1990,1992,1993,1995,1998,2003,2009,2011,
            Gaussian, Inc.  All Rights Reserved.
  
 This is part of the Gaussian(R) 09 program.  It is based on
 the Gaussian(R) 03 system (copyright 2003, Gaussian, Inc.),
 the Gaussian(R) 98 system (copyright 1998, Gaussian, Inc.),
 the Gaussian(R) 94 system (copyright 1995, Gaussian, Inc.),
 the Gaussian 92(TM) system (copyright 1992, Gaussian, Inc.),
 the Gaussian 90(TM) system (copyright 1990, Gaussian, Inc.),
 the Gaussian 88(TM) system (copyright 1988, Gaussian, Inc.),
 the Gaussian 86(TM) system (copyright 1986, Carnegie Mellon
 University), and the Gaussian 82(TM) system (copyright 1983,
 Carnegie Mellon University). Gaussian is a federally registered
 trademark of Gaussian, Inc.
  
 This software contains proprietary and confidential information,
 including trade secrets, belonging to Gaussian, Inc.
  
 This software is provided under written license and may be
 used, copied, transmitted, or stored only in accord with that
 written license.
  
 The following legend is applicable only to US Government
 contracts under FAR:
  
                    RESTRICTED RIGHTS LEGEND
  
 Use, reproduction and disclosure by the US Government is
 subject to restrictions as set forth in subparagraphs (a)
 and (c) of the Commercial Computer Software - Restricted
 Rights clause in FAR 52.227-19.
  
 Gaussian, Inc.
 340 Quinnipiac St., Bldg. 40, Wallingford CT 06492
  
  
 ---------------------------------------------------------------
 Warning -- This program may not be used in any manner that
 competes with the business of Gaussian, Inc. or will provide
 assistance to any competitor of Gaussian, Inc.  The licensee
 of this program is prohibited from giving any competitor of
 Gaussian, Inc. access to this program.  By using this program,
 the user acknowledges that Gaussian, Inc. is engaged in the
 business of creating and licensing software in the field of
 computational chemistry and represents and warrants to the
 licensee that it is not a competitor of Gaussian, Inc. and that
 it will not use this program in any manner prohibited above.
 ---------------------------------------------------------------
  

 Cite this work as:
 Gaussian 09, Revision C.01,
 M. J. Frisch, G. W. Trucks, H. B. Schlegel, G. E. Scuseria, 
 M. A. Robb, J. R. Cheeseman, G. Scalmani, V. Barone, B. Mennucci, 
 G. A. Petersson, H. Nakatsuji, M. Caricato, X. Li, H. P. Hratchian, 
 A. F. Izmaylov, J. Bloino, G. Zheng, J. L. Sonnenberg, M. Hada, 
 M. Ehara, K. Toyota, R. Fukuda, J. Hasegawa, M. Ishida, T. Nakajima, 
 Y. Honda, O. Kitao, H. Nakai, T. Vreven, J. A. Montgomery, Jr., 
 J. E. Peralta, F. Ogliaro, M. Bearpark, J. J. Heyd, E. Brothers, 
 K. N. Kudin, V. N. Staroverov, T. Keith, R. Kobayashi, J. Normand, 
 K. Raghavachari, A. Rendell, J. C. Burant, S. S. Iyengar, J. Tomasi, 
 M. Cossi, N. Rega, J. M. Millam, M. Klene, J. E. Knox, J. B. Cross, 
 V. Bakken, C. Adamo, J. Jaramillo, R. Gomperts, R. E. Stratmann, 
 O. Yazyev, A. J. Austin, R. Cammi, C. Pomelli, J. W. Ochterski, 
 R. L. Martin, K. Morokuma, V. G. Zakrzewski, G. A. Voth, 
 P. Salvador, J. J. Dannenberg, S. Dapprich, A. D. Daniels, 
 O. Farkas, J. B. Foresman, J. V. Ortiz, J. Cioslowski, 
 and D. J. Fox, Gaussian, Inc., Wallingford CT, 2010.
 
 ******************************************
 Gaussian 09:  EM64L-G09RevC.01 23-Sep-2011
                 2-Mar-2021 
 ******************************************
 %chk=3.chk
 -----------------------------------------
 # opt freq b3lyp/6-31g* geom=connectivity
 -----------------------------------------
 1/14=-1,18=20,19=15,26=3,38=1,57=2/1,3;
 2/9=110,12=2,17=6,18=5,40=1/2;
 3/5=1,6=6,7=1,11=2,16=1,25=1,30=1,71=1,74=-5/1,2,3;
 4//1;
 5/5=2,38=5/2;
 6/7=2,8=2,9=2,10=2,28=1/1;
 7//1,2,3,16;
 1/14=-1,18=20,19=15/3(2);
 2/9=110/2;
 99//99;
 2/9=110/2;
 3/5=1,6=6,7=1,11=2,16=1,25=1,30=1,71=1,74=-5/1,2,3;
 4/5=5,16=3/1;
 5/5=2,38=5/2;
 7//1,2,3,16;
 1/14=-1,18=20,19=15/3(-5);
 2/9=110/2;
 6/7=2,8=2,9=2,10=2,19=2,28=1/1;
 99/9=1/99;
 -------------------
 Title Card Required
 -------------------
 Charge =  0 Multiplicity = 1
 Symbolic Z-Matrix:
 C                    -6.08187  -2.83626   0. 
 H                    -5.54871  -3.76396   0. 
 H                    -7.15187  -2.83626   0. 
 C                    -5.4066   -1.66128   0. 
 H                    -5.93976  -0.73358   0. 
 C                    -3.8666   -1.66128   0. 
 H                    -3.33343  -2.58898   0. 
 C                    -3.18435  -0.49034   0. 
 H                    -3.712     0.44052   0. 
 C                    -1.64438  -0.49949   0. 
 H                    -1.503     0.56113   0. 
 C                    -0.56893  -1.32409   0. 
 H                     0.01061  -0.42463   0. 
 C                     0.13784  -2.69233   0. 
 H                    -0.4417   -3.59179   0. 
 C                     1.4913   -2.76108   0. 
 H                     2.07617  -1.86508  0. 
 H                     1.97671  -3.71464   0. 
 

 GradGradGradGradGradGradGradGradGradGradGradGradGradGradGradGradGradGrad
 Berny optimization.
 Initialization pass.
                           ----------------------------
                           !    Initial Parameters    !
                           ! (Angstroms and Degrees)  !
 --------------------------                            --------------------------
 ! Name  Definition              Value          Derivative Info.                !
 --------------------------------------------------------------------------------
 ! R1    R(1,2)                  1.07           estimate D2E/DX2                !
 ! R2    R(1,3)                  1.07           estimate D2E/DX2                !
 ! R3    R(1,4)                  1.3552         estimate D2E/DX2                !
 ! R4    R(4,5)                  1.07           estimate D2E/DX2                !
 ! R5    R(4,6)                  1.54           estimate D2E/DX2                !
 ! R6    R(6,7)                  1.07           estimate D2E/DX2                !
 ! R7    R(6,8)                  1.3552         estimate D2E/DX2                !
 ! R8    R(8,9)                  1.07           estimate D2E/DX2                !
 ! R9    R(8,10)                 1.54           estimate D2E/DX2                !
 ! R10   R(10,11)                1.07           estimate D2E/DX2                !
 ! R11   R(10,12)                1.3552         estimate D2E/DX2                !
 ! R12   R(12,13)                1.07           estimate D2E/DX2                !
 ! R13   R(12,14)                1.54           estimate D2E/DX2                !
 ! R14   R(14,15)                1.07           estimate D2E/DX2                !
 ! R15   R(14,16)                1.3552         estimate D2E/DX2                !
 ! R16   R(16,17)                1.07           estimate D2E/DX2                !
 ! R17   R(16,18)                1.07           estimate D2E/DX2                !
 ! A1    A(2,1,3)              119.8865         estimate D2E/DX2                !
 ! A2    A(2,1,4)              120.2269         estimate D2E/DX2                !
 ! A3    A(3,1,4)              119.8865         estimate D2E/DX2                !
 ! A4    A(1,4,5)              120.2269         estimate D2E/DX2                !
 ! A5    A(1,4,6)              119.8865         estimate D2E/DX2                !
 ! A6    A(5,4,6)              119.8865         estimate D2E/DX2                !
 ! A7    A(4,6,7)              119.8865         estimate D2E/DX2                !
 ! A8    A(4,6,8)              120.2269         estimate D2E/DX2                !
 ! A9    A(7,6,8)              119.8865         estimate D2E/DX2                !
 ! A10   A(6,8,9)              120.2269         estimate D2E/DX2                !
 ! A11   A(6,8,10)             119.8865         estimate D2E/DX2                !
 ! A12   A(9,8,10)             119.8865         estimate D2E/DX2                !
 ! A13   A(8,10,11)             97.2523         estimate D2E/DX2                !
 ! A14   A(8,10,12)            142.8611         estimate D2E/DX2                !
 ! A15   A(11,10,12)           119.8865         estimate D2E/DX2                !
 ! A16   A(10,12,13)            85.3153         estimate D2E/DX2                !
 ! A17   A(10,12,14)           154.7982         estimate D2E/DX2                !
 ! A18   A(13,12,14)           119.8865         estimate D2E/DX2                !
 ! A19   A(12,14,15)           119.8865         estimate D2E/DX2                !
 ! A20   A(12,14,16)           120.2269         estimate D2E/DX2                !
 ! A21   A(15,14,16)           119.8865         estimate D2E/DX2                !
 ! A22   A(14,16,17)           120.2269         estimate D2E/DX2                !
 ! A23   A(14,16,18)           119.8865         estimate D2E/DX2                !
 ! A24   A(17,16,18)           119.8865         estimate D2E/DX2                !
 ! D1    D(2,1,4,5)            180.0            estimate D2E/DX2                !
 ! D2    D(2,1,4,6)              0.0            estimate D2E/DX2                !
 ! D3    D(3,1,4,5)              0.0            estimate D2E/DX2                !
 ! D4    D(3,1,4,6)            180.0            estimate D2E/DX2                !
 ! D5    D(1,4,6,7)              0.0            estimate D2E/DX2                !
 ! D6    D(1,4,6,8)            180.0            estimate D2E/DX2                !
 ! D7    D(5,4,6,7)            180.0            estimate D2E/DX2                !
 ! D8    D(5,4,6,8)              0.0            estimate D2E/DX2                !
 ! D9    D(4,6,8,9)              0.0            estimate D2E/DX2                !
 ! D10   D(4,6,8,10)           180.0            estimate D2E/DX2                !
 ! D11   D(7,6,8,9)            180.0            estimate D2E/DX2                !
 ! D12   D(7,6,8,10)             0.0            estimate D2E/DX2                !
 ! D13   D(6,8,10,11)          180.0            estimate D2E/DX2                !
 ! D14   D(6,8,10,12)            0.0            estimate D2E/DX2                !
 ! D15   D(9,8,10,11)            0.0            estimate D2E/DX2                !
 ! D16   D(9,8,10,12)          180.0            estimate D2E/DX2                !
 ! D17   D(8,10,12,13)         180.0            estimate D2E/DX2                !
 ! D18   D(8,10,12,14)           0.0            estimate D2E/DX2                !
 ! D19   D(11,10,12,13)          0.0            estimate D2E/DX2                !
 ! D20   D(11,10,12,14)        180.0            estimate D2E/DX2                !
 ! D21   D(10,12,14,15)          0.0            estimate D2E/DX2                !
 ! D22   D(10,12,14,16)        180.0            estimate D2E/DX2                !
 ! D23   D(13,12,14,15)        180.0            estimate D2E/DX2                !
 ! D24   D(13,12,14,16)          0.0            estimate D2E/DX2                !
 ! D25   D(12,14,16,17)          0.0            estimate D2E/DX2                !
 ! D26   D(12,14,16,18)        180.0            estimate D2E/DX2                !
 ! D27   D(15,14,16,17)        180.0            estimate D2E/DX2                !
 ! D28   D(15,14,16,18)          0.0            estimate D2E/DX2                !
 --------------------------------------------------------------------------------
 Trust Radius=3.00D-01 FncErr=1.00D-07 GrdErr=1.00D-06
 Number of steps in this run=     79 maximum allowed number of steps=    108.
 GradGradGradGradGradGradGradGradGradGradGradGradGradGradGradGradGradGrad

                          Input orientation:                          
 ---------------------------------------------------------------------
 Center     Atomic      Atomic             Coordinates (Angstroms)
 Number     Number       Type             X           Y           Z
 ---------------------------------------------------------------------
      1          6           0       -6.081872   -2.836257    0.000000
      2          1           0       -5.548708   -3.763962    0.000000
      3          1           0       -7.151872   -2.836257    0.000000
      4          6           0       -5.406597   -1.661280    0.000000
      5          1           0       -5.939761   -0.733575    0.000000
      6          6           0       -3.866597   -1.661280    0.000000
      7          1           0       -3.333434   -2.588985    0.000000
      8          6           0       -3.184354   -0.490335    0.000000
      9          1           0       -3.711996    0.440521    0.000000
     10          6           0       -1.644381   -0.499485    0.000000
     11          1           0       -1.503001    0.561133    0.000000
     12          6           0       -0.568930   -1.324090    0.000000
     13          1           0        0.010612   -0.424629    0.000000
     14          6           0        0.137841   -2.692327    0.000000
     15          1           0       -0.441701   -3.591788    0.000000
     16          6           0        1.491296   -2.761081    0.000000
     17          1           0        2.076173   -1.865079    0.000000
     18          1           0        1.976708   -3.714641    0.000000
 ---------------------------------------------------------------------
                    Distance matrix (angstroms):
                    1          2          3          4          5
     1  C    0.000000
     2  H    1.070000   0.000000
     3  H    1.070000   1.852234   0.000000
     4  C    1.355200   2.107479   2.103938   0.000000
     5  H    2.107479   3.055514   2.427032   1.070000   0.000000
     6  C    2.507591   2.692725   3.489068   1.540000   2.271265
     7  H    2.759539   2.507591   3.826436   2.271265   3.199295
     8  C    3.728131   4.038168   4.609181   2.511867   2.766123
     9  H    4.043956   4.588157   4.750791   2.699859   2.518221
    10  C    5.015160   5.089261   5.982721   3.937517   4.301754
    11  H    5.701607   5.922347   6.591813   4.491902   4.621808
    12  C    5.716570   5.545373   6.754389   4.849404   5.403196
    13  H    6.552428   6.485152   7.557588   5.556570   5.958388
    14  C    6.221378   5.786643   7.291134   5.639491   6.385449
    15  H    5.690549   5.109908   6.752571   5.327012   6.196615
    16  C    7.573541   7.111078   8.643495   6.985019   7.702687
    17  H    8.215648   7.857771   9.279008   7.485545   8.095400
    18  H    8.106310   7.525577   9.170742   7.663516   8.459151
                    6          7          8          9         10
     6  C    0.000000
     7  H    1.070000   0.000000
     8  C    1.355200   2.103938   0.000000
     9  H    2.107479   3.053066   1.070000   0.000000
    10  C    2.507591   2.686802   1.540000   2.271265   0.000000
    11  H    3.244335   3.643313   1.983062   2.212286   1.070000
    12  C    3.314861   3.040138   2.745102   3.604541   1.355200
    13  H    4.069651   3.983351   3.195642   3.821819   1.656686
    14  C    4.135044   3.472813   3.985693   4.963465   2.825752
    15  H    3.931510   3.060675   4.140188   5.191758   3.317948
    16  C    5.469605   4.827798   5.197883   6.109379   3.866172
    17  H    5.946263   5.457827   5.437192   6.230465   3.963252
    18  H    6.193586   5.428140   6.085450   7.044623   4.842469
                   11         12         13         14         15
    11  H    0.000000
    12  C    2.103938   0.000000
    13  H    1.806309   1.070000   0.000000
    14  C    3.643812   1.540000   2.271265   0.000000
    15  H    4.286387   2.271265   3.199295   1.070000   0.000000
    16  C    4.472463   2.511867   2.766123   1.355200   2.103938
    17  H    4.324002   2.699859   2.518221   2.107479   3.053066
    18  H    5.512768   3.492135   3.832716   2.103938   2.421527
                   16         17         18
    16  C    0.000000
    17  H    1.070000   0.000000
    18  H    1.070000   1.852234   0.000000
 Stoichiometry    C8H10
 Framework group  CS[SG(C8H10)]
 Deg. of freedom    33
 Full point group                 CS      NOp   2
 Largest Abelian subgroup         CS      NOp   2
 Largest concise Abelian subgroup C1      NOp   1
                         Standard orientation:                         
 ---------------------------------------------------------------------
 Center     Atomic      Atomic             Coordinates (Angstroms)
 Number     Number       Type             X           Y           Z
 ---------------------------------------------------------------------
      1          6           0       -1.622280    3.492328    0.000000
      2          1           0       -0.572881    3.701279    0.000000
      3          1           0       -2.326343    4.298054    0.000000
      4          6           0       -2.062724    2.210697    0.000000
      5          1           0       -3.112123    2.001745    0.000000
      6          6           0       -1.049399    1.051053    0.000000
      7          1           0        0.000000    1.260005    0.000000
      8          6           0       -1.482221   -0.233171    0.000000
      9          1           0       -2.530360   -0.448354    0.000000
     10          6           0       -0.462024   -1.386774    0.000000
     11          1           0       -1.167658   -2.191125    0.000000
     12          6           0        0.866565   -1.654013    0.000000
     13          1           0        0.570598   -2.682266    0.000000
     14          6           0        2.361927   -1.285919    0.000000
     15          1           0        2.657894   -0.257666    0.000000
     16          6           0        3.304277   -2.259851    0.000000
     17          1           0        3.014424   -3.289844    0.000000
     18          1           0        4.341724   -1.997929    0.000000
 ---------------------------------------------------------------------
 Rotational constants (GHZ):      4.9294873      0.7123053      0.6223731
 Standard basis: 6-31G(d) (6D, 7F)
 There are   108 symmetry adapted basis functions of A'  symmetry.
 There are    32 symmetry adapted basis functions of A"  symmetry.
 Integral buffers will be    131072 words long.
 Raffenetti 2 integral format.
 Two-electron integral symmetry is turned on.
   140 basis functions,   264 primitive gaussians,   140 cartesian basis functions
    29 alpha electrons       29 beta electrons
       nuclear repulsion energy       295.8110710707 Hartrees.
 NAtoms=   18 NActive=   18 NUniq=   18 SFac= 1.00D+00 NAtFMM=   60 NAOKFM=F Big=F
 One-electron integrals computed using PRISM.
 NBasis=   140 RedAO= T  NBF=   108    32
 NBsUse=   140 1.00D-06 NBFU=   108    32
 Harris functional with IExCor=  402 diagonalized for initial guess.
 ExpMin= 1.61D-01 ExpMax= 3.05D+03 ExpMxC= 4.57D+02 IAcc=1 IRadAn=         1 AccDes= 0.00D+00
 HarFok:  IExCor=  402 AccDes= 0.00D+00 IRadAn=         1 IDoV= 1
 ScaDFX=  1.000000  1.000000  1.000000  1.000000
 FoFCou: FMM=F IPFlag=           0 FMFlag=      100000 FMFlg1=           0
         NFxFlg=           0 DoJE=T BraDBF=F KetDBF=T FulRan=T
         Omega=  0.000000  0.000000  1.000000  0.000000  0.000000 ICntrl=     500 IOpCl=  0
         NMat0=    1 NMatS0=    1 NMatT0=    0 NMatD0=    1 NMtDS0=    0 NMtDT0=    0
         I1Cent=           4 NGrid=           0.
 Petite list used in FoFCou.
 Initial guess orbital symmetries:
       Occupied  (A') (A') (A') (A') (A') (A') (A') (A') (A') (A')
                 (A') (A') (A') (A') (A') (A') (A') (A') (A') (A')
                 (A') (A') (A') (A') (A") (A') (A") (A") (A")
       Virtual   (A") (A") (A") (A") (A') (A') (A') (A') (A') (A')
                 (A') (A') (A') (A') (A') (A') (A') (A') (A') (A')
                 (A') (A') (A') (A") (A") (A') (A") (A') (A') (A")
                 (A') (A') (A') (A") (A") (A') (A") (A') (A") (A')
                 (A') (A') (A') (A') (A') (A') (A') (A') (A') (A')
                 (A') (A') (A') (A') (A') (A') (A') (A') (A') (A")
                 (A') (A") (A') (A') (A") (A") (A") (A') (A") (A")
                 (A') (A") (A") (A') (A') (A') (A') (A") (A') (A')
                 (A") (A') (A') (A') (A") (A') (A') (A') (A") (A')
                 (A') (A") (A") (A') (A") (A') (A') (A') (A') (A')
                 (A') (A') (A') (A') (A') (A') (A') (A') (A') (A')
                 (A')
 The electronic state of the initial guess is 1-A'.
 Requested convergence on RMS density matrix=1.00D-08 within 128 cycles.
 Requested convergence on MAX density matrix=1.00D-06.
 Requested convergence on             energy=1.00D-06.
 No special actions if energy rises.
 Integral accuracy reduced to 1.0D-05 until final iterations.
 Initial convergence to 1.0D-05 achieved.  Increase integral accuracy.
 SCF Done:  E(RB3LYP) =  -310.722429576     A.U. after   14 cycles
             Convg  =    0.3882D-08             -V/T =  2.0106

 **********************************************************************

            Population analysis using the SCF density.

 **********************************************************************

 Orbital symmetries:
       Occupied  (A') (A') (A') (A') (A') (A') (A') (A') (A') (A')
                 (A') (A') (A') (A') (A') (A') (A') (A') (A') (A')
                 (A') (A') (A') (A') (A") (A") (A') (A") (A")
       Virtual   (A") (A") (A") (A') (A') (A") (A') (A') (A') (A')
                 (A') (A') (A') (A') (A') (A') (A') (A') (A') (A')
                 (A') (A') (A') (A") (A") (A') (A") (A') (A') (A")
                 (A') (A") (A') (A") (A') (A') (A") (A') (A") (A')
                 (A') (A') (A') (A') (A') (A') (A') (A') (A') (A')
                 (A') (A') (A') (A') (A') (A') (A') (A') (A') (A")
                 (A') (A') (A") (A') (A") (A") (A") (A') (A") (A")
                 (A') (A") (A") (A') (A') (A') (A") (A') (A') (A")
                 (A') (A') (A') (A') (A") (A') (A') (A') (A") (A')
                 (A') (A") (A") (A') (A") (A') (A') (A') (A') (A')
                 (A') (A') (A') (A') (A') (A') (A') (A') (A') (A')
                 (A')
 The electronic state is 1-A'.
 Alpha  occ. eigenvalues --  -10.21344 -10.19963 -10.19620 -10.19571 -10.19323
 Alpha  occ. eigenvalues --  -10.19136 -10.18722 -10.18003  -0.80840  -0.78644
 Alpha  occ. eigenvalues --   -0.75662  -0.71809  -0.62288  -0.58792  -0.56224
 Alpha  occ. eigenvalues --   -0.52353  -0.47975  -0.47111  -0.44336  -0.41267
 Alpha  occ. eigenvalues --   -0.40764  -0.38263  -0.37521  -0.35954  -0.32906
 Alpha  occ. eigenvalues --   -0.30298  -0.28932  -0.25902  -0.20459
 Alpha virt. eigenvalues --   -0.05144   0.00714   0.06225   0.08965   0.10749
 Alpha virt. eigenvalues --    0.11928   0.12443   0.13135   0.13954   0.16950
 Alpha virt. eigenvalues --    0.17527   0.17966   0.19425   0.24081   0.26415
 Alpha virt. eigenvalues --    0.27355   0.32180   0.33674   0.35329   0.38186
 Alpha virt. eigenvalues --    0.44219   0.47304   0.50428   0.52315   0.54408
 Alpha virt. eigenvalues --    0.55746   0.57262   0.58265   0.59613   0.60865
 Alpha virt. eigenvalues --    0.62106   0.65152   0.66125   0.66280   0.66927
 Alpha virt. eigenvalues --    0.68253   0.68749   0.69656   0.75006   0.79540
 Alpha virt. eigenvalues --    0.83742   0.85313   0.86947   0.87611   0.89659
 Alpha virt. eigenvalues --    0.90108   0.91550   0.93365   0.94144   0.94880
 Alpha virt. eigenvalues --    0.98380   0.99971   1.02955   1.03706   1.07782
 Alpha virt. eigenvalues --    1.11544   1.15222   1.16855   1.21070   1.29296
 Alpha virt. eigenvalues --    1.31226   1.32258   1.35812   1.36076   1.42807
 Alpha virt. eigenvalues --    1.45855   1.50499   1.51794   1.55233   1.60422
 Alpha virt. eigenvalues --    1.68716   1.69633   1.72792   1.76590   1.88490
 Alpha virt. eigenvalues --    1.90573   1.94675   1.95260   2.00180   2.01040
 Alpha virt. eigenvalues --    2.01118   2.06226   2.08202   2.13330   2.14153
 Alpha virt. eigenvalues --    2.21249   2.24471   2.27829   2.33323   2.33899
 Alpha virt. eigenvalues --    2.38452   2.38830   2.40597   2.42905   2.59279
 Alpha virt. eigenvalues --    2.61513   2.62325   2.70342   2.77308   2.87491
 Alpha virt. eigenvalues --    2.89063   2.98665   3.22383   4.02227   4.06681
 Alpha virt. eigenvalues --    4.09492   4.16434   4.19117   4.33590   4.44359
 Alpha virt. eigenvalues --    4.63615
          Condensed to atoms (all electrons):
              1          2          3          4          5          6
     1  C    5.063238   0.372722   0.364127   0.624098  -0.051955  -0.026415
     2  H    0.372722   0.561307  -0.040665  -0.036268   0.005706  -0.011254
     3  H    0.364127  -0.040665   0.560584  -0.023715  -0.006527   0.003868
     4  C    0.624098  -0.036268  -0.023715   4.805188   0.369097   0.410734
     5  H   -0.051955   0.005706  -0.006527   0.369097   0.591282  -0.044536
     6  C   -0.026415  -0.011254   0.003868   0.410734  -0.044536   4.856996
     7  H   -0.003171   0.004446  -0.000023  -0.045504   0.003681   0.366910
     8  C    0.001743   0.000500  -0.000170  -0.018151  -0.003648   0.624739
     9  H    0.000349   0.000015  -0.000006  -0.008534   0.004056  -0.052387
    10  C   -0.000246  -0.000003   0.000003   0.004806   0.000141  -0.026678
    11  H    0.000005   0.000000   0.000000  -0.000299   0.000001   0.005919
    12  C    0.000000   0.000002   0.000000   0.000161   0.000003  -0.011045
    13  H    0.000000   0.000000   0.000000   0.000001   0.000000  -0.000127
    14  C    0.000000   0.000000   0.000000  -0.000006   0.000000   0.000499
    15  H   -0.000001   0.000000   0.000000   0.000004   0.000000  -0.000195
    16  C    0.000000   0.000000   0.000000   0.000000   0.000000   0.000013
    17  H    0.000000   0.000000   0.000000   0.000000   0.000000   0.000000
    18  H    0.000000   0.000000   0.000000   0.000000   0.000000   0.000000
              7          8          9         10         11         12
     1  C   -0.003171   0.001743   0.000349  -0.000246   0.000005   0.000000
     2  H    0.004446   0.000500   0.000015  -0.000003   0.000000   0.000002
     3  H   -0.000023  -0.000170  -0.000006   0.000003   0.000000   0.000000
     4  C   -0.045504  -0.018151  -0.008534   0.004806  -0.000299   0.000161
     5  H    0.003681  -0.003648   0.004056   0.000141   0.000001   0.000003
     6  C    0.366910   0.624739  -0.052387  -0.026678   0.005919  -0.011045
     7  H    0.591249  -0.050470   0.005973  -0.010115   0.000422   0.003096
     8  C   -0.050470   4.952141   0.357269   0.384839  -0.069455  -0.041608
     9  H    0.005973   0.357269   0.593918  -0.033972  -0.002297   0.004251
    10  C   -0.010115   0.384839  -0.033972   5.141779   0.365385   0.534607
    11  H    0.000422  -0.069455  -0.002297   0.365385   0.655772  -0.045241
    12  C    0.003096  -0.041608   0.004251   0.534607  -0.045241   4.923337
    13  H   -0.000131   0.012738  -0.000471  -0.049839  -0.038910   0.336113
    14  C    0.000762  -0.003222   0.000004  -0.049709   0.005087   0.411095
    15  H    0.000609   0.000472   0.000000  -0.002294  -0.000147  -0.041482
    16  C    0.000005   0.000005   0.000000   0.004405  -0.000094  -0.011892
    17  H    0.000001   0.000002   0.000000  -0.000439  -0.000063  -0.009995
    18  H   -0.000001   0.000001   0.000000  -0.000152   0.000001   0.002775
             13         14         15         16         17         18
     1  C    0.000000   0.000000  -0.000001   0.000000   0.000000   0.000000
     2  H    0.000000   0.000000   0.000000   0.000000   0.000000   0.000000
     3  H    0.000000   0.000000   0.000000   0.000000   0.000000   0.000000
     4  C    0.000001  -0.000006   0.000004   0.000000   0.000000   0.000000
     5  H    0.000000   0.000000   0.000000   0.000000   0.000000   0.000000
     6  C   -0.000127   0.000499  -0.000195   0.000013   0.000000   0.000000
     7  H   -0.000131   0.000762   0.000609   0.000005   0.000001  -0.000001
     8  C    0.012738  -0.003222   0.000472   0.000005   0.000002   0.000001
     9  H   -0.000471   0.000004   0.000000   0.000000   0.000000   0.000000
    10  C   -0.049839  -0.049709  -0.002294   0.004405  -0.000439  -0.000152
    11  H   -0.038910   0.005087  -0.000147  -0.000094  -0.000063   0.000001
    12  C    0.336113   0.411095  -0.041482  -0.011892  -0.009995   0.002775
    13  H    0.650853  -0.053394   0.004084  -0.006674   0.005613   0.000184
    14  C   -0.053394   4.831743   0.366253   0.628183  -0.032442  -0.026504
    15  H    0.004084   0.366253   0.588088  -0.056542   0.005813  -0.005592
    16  C   -0.006674   0.628183  -0.056542   5.036779   0.367929   0.367180
    17  H    0.005613  -0.032442   0.005813   0.367929   0.546012  -0.037532
    18  H    0.000184  -0.026504  -0.005592   0.367180  -0.037532   0.547139
 Mulliken atomic charges:
              1
     1  C   -0.344493
     2  H    0.143491
     3  H    0.142523
     4  C   -0.081613
     5  H    0.132700
     6  C   -0.097042
     7  H    0.132262
     8  C   -0.147723
     9  H    0.131832
    10  C   -0.262518
    11  H    0.123913
    12  C   -0.054177
    13  H    0.139959
    14  C   -0.078351
    15  H    0.140930
    16  C   -0.329298
    17  H    0.155102
    18  H    0.152501
 Sum of Mulliken atomic charges =   0.00000
 Mulliken charges with hydrogens summed into heavy atoms:
              1
     1  C   -0.058479
     4  C    0.051087
     6  C    0.035220
     8  C   -0.015891
    10  C   -0.138605
    12  C    0.085783
    14  C    0.062579
    16  C   -0.021694
 Sum of Mulliken charges with hydrogens summed into heavy atoms =   0.00000
 Electronic spatial extent (au):  <R**2>=           1772.1326
 Charge=              0.0000 electrons
 Dipole moment (field-independent basis, Debye):
    X=              0.2074    Y=             -0.1005    Z=              0.0000  Tot=              0.2305
 Quadrupole moment (field-independent basis, Debye-Ang):
   XX=            -41.0244   YY=            -44.4672   ZZ=            -53.9667
   XY=             -0.2013   XZ=              0.0000   YZ=              0.0000
 Traceless Quadrupole moment (field-independent basis, Debye-Ang):
   XX=              5.4617   YY=              2.0189   ZZ=             -7.4806
   XY=             -0.2013   XZ=              0.0000   YZ=              0.0000
 Octapole moment (field-independent basis, Debye-Ang**2):
  XXX=              3.8351  YYY=             -2.1073  ZZZ=              0.0000  XYY=              0.7369
  XXY=             -1.8873  XXZ=              0.0000  XZZ=             -0.0257  YZZ=             -0.1804
  YYZ=              0.0000  XYZ=              0.0000
 Hexadecapole moment (field-independent basis, Debye-Ang**3):
 XXXX=          -1017.1930 YYYY=          -1164.3633 ZZZZ=            -56.3207 XXXY=            372.6199
 XXXZ=              0.0000 YYYX=            384.0026 YYYZ=              0.0000 ZZZX=              0.0000
 ZZZY=              0.0000 XXYY=           -361.9116 XXZZ=           -223.2291 YYZZ=           -242.0615
 XXYZ=              0.0000 YYXZ=              0.0000 ZZXY=            157.8502
 N-N= 2.958110710707D+02 E-N=-1.309890478023D+03  KE= 3.074493936613D+02
 Symmetry A'   KE= 2.990285752910D+02
 Symmetry A"   KE= 8.420818370316D+00
 Calling FoFJK, ICntrl=      2127 FMM=F ISym2X=1 I1Cent= 0 IOpClX= 0 NMat=1 NMatS=1 NMatT=0.
 ***** Axes restored to original set *****
 -------------------------------------------------------------------
 Center     Atomic                   Forces (Hartrees/Bohr)
 Number     Number              X              Y              Z
 -------------------------------------------------------------------
      1        6           0.010302418    0.030686148    0.000000000
      2        1           0.002473062   -0.011865173    0.000000000
      3        1          -0.011662301   -0.004825786    0.000000000
      4        6           0.044543237   -0.043781425    0.000000000
      5        1          -0.001456923    0.013138194    0.000000000
      6        6          -0.057977825    0.038797541    0.000000000
      7        1           0.001478394   -0.012767891    0.000000000
      8        6           0.040918730   -0.065318121    0.000000000
      9        1           0.000105119    0.012799329    0.000000000
     10        6          -0.095803345   -0.001642631    0.000000000
     11        1           0.026564675    0.013463992    0.000000000
     12        6           0.018478932    0.006634537    0.000000000
     13        1           0.059254292   -0.017188317    0.000000000
     14        6          -0.011388425    0.048816986    0.000000000
     15        1          -0.008965933   -0.008830775    0.000000000
     16        6          -0.033178041    0.002722253    0.000000000
     17        1           0.008911518    0.007661388    0.000000000
     18        1           0.007402415   -0.008500248    0.000000000
 -------------------------------------------------------------------
 Cartesian Forces:  Max     0.095803345 RMS     0.025411647

 GradGradGradGradGradGradGradGradGradGradGradGradGradGradGradGradGradGrad
 Berny optimization.
 Internal  Forces:  Max     0.094496991 RMS     0.020016940
 Search for a local minimum.
 Step number   1 out of a maximum of   79
 All quantities printed in internal units (Hartrees-Bohrs-Radians)
 Mixed Optimization -- RFO/linear search
 Second derivative matrix not updated -- first step.
 ITU=  0
     Eigenvalues ---    0.00237   0.00237   0.00237   0.01290   0.01459
     Eigenvalues ---    0.01459   0.01463   0.01463   0.01623   0.02681
     Eigenvalues ---    0.02681   0.02681   0.02681   0.02681   0.02681
     Eigenvalues ---    0.16000   0.16000   0.16000   0.16000   0.16000
     Eigenvalues ---    0.16000   0.16000   0.16000   0.16000   0.16000
     Eigenvalues ---    0.22000   0.22000   0.22000   0.22000   0.22000
     Eigenvalues ---    0.22000   0.28519   0.28519   0.28519   0.37230
     Eigenvalues ---    0.37230   0.37230   0.37230   0.37230   0.37230
     Eigenvalues ---    0.37230   0.37230   0.37230   0.37230   0.53930
     Eigenvalues ---    0.53930   0.53930   0.53930
 RFO step:  Lambda=-8.99070675D-02 EMin= 2.36824103D-03
 Linear search not attempted -- first point.
 Maximum step size (   0.300) exceeded in Quadratic search.
    -- Step size scaled by   0.545
 Iteration  1 RMS(Cart)=  0.17338152 RMS(Int)=  0.00679771
 Iteration  2 RMS(Cart)=  0.01162834 RMS(Int)=  0.00002481
 Iteration  3 RMS(Cart)=  0.00003361 RMS(Int)=  0.00000000
 Iteration  4 RMS(Cart)=  0.00000000 RMS(Int)=  0.00000000
 ClnCor:  largest displacement from symmetrization is 3.64D-11 for atom    17.
 Variable       Old X    -DE/DX   Delta X   Delta X   Delta X     New X
                                 (Linear)    (Quad)   (Total)
    R1        2.02201   0.01152   0.00000   0.01358   0.01358   2.03559
    R2        2.02201   0.01166   0.00000   0.01375   0.01375   2.03576
    R3        2.56096  -0.01270   0.00000  -0.01100  -0.01100   2.54996
    R4        2.02201   0.01212   0.00000   0.01429   0.01429   2.03630
    R5        2.91018  -0.04420   0.00000  -0.06423  -0.06423   2.84595
    R6        2.02201   0.01181   0.00000   0.01392   0.01392   2.03593
    R7        2.56096  -0.00193   0.00000  -0.00167  -0.00167   2.55929
    R8        2.02201   0.01108   0.00000   0.01307   0.01307   2.03508
    R9        2.91018  -0.02898   0.00000  -0.04211  -0.04211   2.86807
   R10        2.02201   0.01686   0.00000   0.01988   0.01988   2.04188
   R11        2.56096   0.01310   0.00000   0.01135   0.01135   2.57231
   R12        2.02201   0.01764   0.00000   0.02081   0.02081   2.04281
   R13        2.91018  -0.05427   0.00000  -0.07886  -0.07886   2.83132
   R14        2.02201   0.01228   0.00000   0.01448   0.01448   2.03649
   R15        2.56096  -0.01694   0.00000  -0.01467  -0.01467   2.54628
   R16        2.02201   0.01128   0.00000   0.01331   0.01331   2.03531
   R17        2.02201   0.01094   0.00000   0.01290   0.01290   2.03490
    A1        2.09241  -0.00579   0.00000  -0.01263  -0.01263   2.07979
    A2        2.09836   0.00183   0.00000   0.00399   0.00399   2.10235
    A3        2.09241   0.00396   0.00000   0.00864   0.00864   2.10105
    A4        2.09836  -0.00086   0.00000   0.00074   0.00074   2.09909
    A5        2.09241   0.01241   0.00000   0.02183   0.02183   2.11425
    A6        2.09241  -0.01155   0.00000  -0.02257  -0.02257   2.06984
    A7        2.09241  -0.01157   0.00000  -0.02252  -0.02252   2.06989
    A8        2.09836   0.01287   0.00000   0.02264   0.02264   2.12099
    A9        2.09241  -0.00130   0.00000  -0.00012  -0.00012   2.09230
   A10        2.09836  -0.00407   0.00000  -0.00443  -0.00443   2.09393
   A11        2.09241   0.02110   0.00000   0.03711   0.03711   2.12952
   A12        2.09241  -0.01702   0.00000  -0.03268  -0.03268   2.05974
   A13        1.69737   0.04550   0.00000   0.09052   0.09052   1.78789
   A14        2.49340  -0.04136   0.00000  -0.07274  -0.07274   2.42066
   A15        2.09241  -0.00415   0.00000  -0.01778  -0.01778   2.07464
   A16        1.48903   0.09450   0.00000   0.19144   0.19144   1.68048
   A17        2.70174  -0.06945   0.00000  -0.12215  -0.12215   2.57959
   A18        2.09241  -0.02505   0.00000  -0.06930  -0.06930   2.02312
   A19        2.09241  -0.00321   0.00000  -0.00682  -0.00682   2.08559
   A20        2.09836   0.00085   0.00000   0.00150   0.00150   2.09985
   A21        2.09241   0.00236   0.00000   0.00533   0.00533   2.09774
   A22        2.09836   0.00257   0.00000   0.00561   0.00561   2.10396
   A23        2.09241   0.00148   0.00000   0.00323   0.00323   2.09565
   A24        2.09241  -0.00405   0.00000  -0.00884  -0.00884   2.08357
    D1        3.14159   0.00000   0.00000   0.00000   0.00000   3.14159
    D2        0.00000   0.00000   0.00000   0.00000   0.00000   0.00000
    D3        0.00000   0.00000   0.00000   0.00000   0.00000   0.00000
    D4        3.14159   0.00000   0.00000   0.00000   0.00000   3.14159
    D5        0.00000   0.00000   0.00000   0.00000   0.00000   0.00000
    D6        3.14159   0.00000   0.00000   0.00000   0.00000   3.14159
    D7        3.14159   0.00000   0.00000   0.00000   0.00000   3.14159
    D8        0.00000   0.00000   0.00000   0.00000   0.00000   0.00000
    D9        0.00000   0.00000   0.00000   0.00000   0.00000   0.00000
   D10        3.14159   0.00000   0.00000   0.00000   0.00000   3.14159
   D11        3.14159   0.00000   0.00000   0.00000   0.00000   3.14159
   D12        0.00000   0.00000   0.00000   0.00000   0.00000   0.00000
   D13        3.14159   0.00000   0.00000   0.00000   0.00000   3.14159
   D14        0.00000   0.00000   0.00000   0.00000   0.00000   0.00000
   D15        0.00000   0.00000   0.00000   0.00000   0.00000   0.00000
   D16        3.14159   0.00000   0.00000   0.00000   0.00000   3.14159
   D17        3.14159   0.00000   0.00000   0.00000   0.00000   3.14159
   D18        0.00000   0.00000   0.00000   0.00000   0.00000   0.00000
   D19        0.00000   0.00000   0.00000   0.00000   0.00000   0.00000
   D20        3.14159   0.00000   0.00000   0.00000   0.00000   3.14159
   D21        0.00000   0.00000   0.00000   0.00000   0.00000   0.00000
   D22        3.14159   0.00000   0.00000   0.00000   0.00000   3.14159
   D23        3.14159   0.00000   0.00000   0.00000   0.00000   3.14159
   D24        0.00000   0.00000   0.00000   0.00000   0.00000   0.00000
   D25        0.00000   0.00000   0.00000   0.00000   0.00000   0.00000
   D26        3.14159   0.00000   0.00000   0.00000   0.00000   3.14159
   D27        3.14159   0.00000   0.00000   0.00000   0.00000   3.14159
   D28        0.00000   0.00000   0.00000   0.00000   0.00000   0.00000
         Item               Value     Threshold  Converged?
 Maximum Force            0.094497     0.000450     NO 
 RMS     Force            0.020017     0.000300     NO 
 Maximum Displacement     0.612890     0.001800     NO 
 RMS     Displacement     0.178363     0.001200     NO 
 Predicted change in Energy=-3.969576D-02
 GradGradGradGradGradGradGradGradGradGradGradGradGradGradGradGradGradGrad

                          Input orientation:                          
 ---------------------------------------------------------------------
 Center     Atomic      Atomic             Coordinates (Angstroms)
 Number     Number       Type             X           Y           Z
 ---------------------------------------------------------------------
      1          6           0       -5.929676   -2.925198    0.000000
      2          1           0       -5.364871   -3.842437    0.000000
      3          1           0       -7.005961   -2.971444    0.000000
      4          6           0       -5.297822   -1.732895    0.000000
      5          1           0       -5.865804   -0.817178    0.000000
      6          6           0       -3.794181   -1.648396    0.000000
      7          1           0       -3.226255   -2.563918    0.000000
      8          6           0       -3.151959   -0.456035    0.000000
      9          1           0       -3.718158    0.460026    0.000000
     10          6           0       -1.637416   -0.357956    0.000000
     11          1           0       -1.473356    0.710035    0.000000
     12          6           0       -0.558964   -1.188515    0.000000
     13          1           0        0.190413   -0.409402    0.000000
     14          6           0       -0.041657   -2.594644    0.000000
     15          1           0       -0.738766   -3.416471    0.000000
     16          6           0        1.284837   -2.831271    0.000000
     17          1           0        1.986641   -2.014271    0.000000
     18          1           0        1.652380   -3.843428    0.000000
 ---------------------------------------------------------------------
                    Distance matrix (angstroms):
                    1          2          3          4          5
     1  C    0.000000
     2  H    1.077187   0.000000
     3  H    1.077278   1.857904   0.000000
     4  C    1.349380   2.110608   2.109915   0.000000
     5  H    2.108988   3.066452   2.437380   1.077563   0.000000
     6  C    2.488084   2.698311   3.473613   1.506014   2.232162
     7  H    2.727454   2.491644   3.801612   2.232037   3.165174
     8  C    3.716514   4.045330   4.602239   2.497017   2.737769
     9  H    4.043581   4.606826   4.752328   2.702635   2.498726
    10  C    5.001422   5.102502   5.970895   3.910118   4.253251
    11  H    5.750974   5.989064   6.645525   4.538110   4.650374
    12  C    5.644520   5.489995   6.688991   4.770023   5.319816
    13  H    6.617002   6.530461   7.638839   5.645561   6.069930
    14  C    5.897290   5.467503   6.974489   5.326338   6.089341
    15  H    5.214105   4.645675   6.282976   4.859982   5.748291
    16  C    7.215124   6.726149   8.291983   6.673667   7.428879
    17  H    7.968555   7.575416   9.043400   7.289896   7.943169
    18  H    7.637455   7.017251   8.702139   7.263585   8.104399
                    6          7          8          9         10
     6  C    0.000000
     7  H    1.077367   0.000000
     8  C    1.354317   2.109192   0.000000
     9  H    2.109792   3.063691   1.076916   0.000000
    10  C    2.513338   2.718580   1.517715   2.235751   0.000000
    11  H    3.308840   3.713680   2.043876   2.258681   1.080519
    12  C    3.267739   3.001029   2.694466   3.563452   1.361207
    13  H    4.172781   4.039253   3.342698   4.004102   1.828554
    14  C    3.869989   3.184746   3.774603   4.779923   2.747584
    15  H    3.530106   2.629534   3.819383   4.889172   3.187803
    16  C    5.214941   4.519007   5.032584   5.988538   3.828426
    17  H    5.792389   5.241793   5.369666   6.218270   3.984617
    18  H    5.872239   5.043632   5.878444   6.882034   4.792836
                   11         12         13         14         15
    11  H    0.000000
    12  C    2.107274   0.000000
    13  H    2.005310   1.081011   0.000000
    14  C    3.601480   1.498267   2.197530   0.000000
    15  H    4.191381   2.235200   3.147354   1.077664   0.000000
    16  C    4.488705   2.469464   2.657670   1.347434   2.106520
    17  H    4.403796   2.676188   2.408742   2.109699   3.064965
    18  H    5.523065   3.455229   3.732276   2.104573   2.428965
                   16         17         18
    16  C    0.000000
    17  H    1.077041   0.000000
    18  H    1.076824   1.859448   0.000000
 Stoichiometry    C8H10
 Framework group  CS[SG(C8H10)]
 Deg. of freedom    33
 Full point group                 CS      NOp   2
 Largest Abelian subgroup         CS      NOp   2
 Largest concise Abelian subgroup C1      NOp   1
                         Standard orientation:                         
 ---------------------------------------------------------------------
 Center     Atomic      Atomic             Coordinates (Angstroms)
 Number     Number       Type             X           Y           Z
 ---------------------------------------------------------------------
      1          6           0       -1.628841    3.362865    0.000000
      2          1           0       -0.577835    3.598913    0.000000
      3          1           0       -2.347179    4.165684    0.000000
      4          6           0       -2.041281    2.078061    0.000000
      5          1           0       -3.093416    1.845350    0.000000
      6          6           0       -1.051955    0.942583    0.000000
      7          1           0        0.000000    1.175198    0.000000
      8          6           0       -1.457199   -0.349683    0.000000
      9          1           0       -2.508334   -0.583911    0.000000
     10          6           0       -0.469984   -1.502448    0.000000
     11          1           0       -1.120033   -2.365557    0.000000
     12          6           0        0.877586   -1.694648    0.000000
     13          1           0        0.843009   -2.775105    0.000000
     14          6           0        2.245434   -1.083259    0.000000
     15          1           0        2.347085   -0.010400    0.000000
     16          6           0        3.340978   -1.867711    0.000000
     17          1           0        3.246062   -2.940562    0.000000
     18          1           0        4.322212   -1.424168    0.000000
 ---------------------------------------------------------------------
 Rotational constants (GHZ):      4.4435475      0.7786290      0.6625350
 Standard basis: 6-31G(d) (6D, 7F)
 There are   108 symmetry adapted basis functions of A'  symmetry.
 There are    32 symmetry adapted basis functions of A"  symmetry.
 Integral buffers will be    131072 words long.
 Raffenetti 2 integral format.
 Two-electron integral symmetry is turned on.
   140 basis functions,   264 primitive gaussians,   140 cartesian basis functions
    29 alpha electrons       29 beta electrons
       nuclear repulsion energy       299.5342377605 Hartrees.
 NAtoms=   18 NActive=   18 NUniq=   18 SFac= 1.00D+00 NAtFMM=   60 NAOKFM=F Big=F
 One-electron integrals computed using PRISM.
 NBasis=   140 RedAO= T  NBF=   108    32
 NBsUse=   140 1.00D-06 NBFU=   108    32
 Initial guess read from the read-write file.
 B after Tr=     0.000000    0.000000    0.000000
         Rot=    1.000000    0.000000    0.000000    0.000000 Ang=   0.00 deg.
 Initial guess orbital symmetries:
       Occupied  (A') (A') (A') (A') (A') (A') (A') (A') (A') (A')
                 (A') (A') (A') (A') (A') (A') (A') (A') (A') (A')
                 (A') (A') (A') (A') (A") (A") (A') (A") (A")
       Virtual   (A") (A") (A") (A') (A') (A") (A') (A') (A') (A')
                 (A') (A') (A') (A') (A') (A') (A') (A') (A') (A')
                 (A') (A') (A') (A") (A") (A') (A") (A') (A') (A")
                 (A') (A") (A') (A") (A') (A') (A") (A') (A") (A')
                 (A') (A') (A') (A') (A') (A') (A') (A') (A') (A')
                 (A') (A') (A') (A') (A') (A') (A') (A') (A') (A")
                 (A') (A') (A") (A') (A") (A") (A") (A') (A") (A")
                 (A') (A") (A") (A') (A') (A') (A") (A') (A') (A")
                 (A') (A') (A') (A') (A") (A') (A') (A') (A") (A')
                 (A') (A") (A") (A') (A") (A') (A') (A') (A') (A')
                 (A') (A') (A') (A') (A') (A') (A') (A') (A') (A')
                 (A')
 Harris functional with IExCor=  402 diagonalized for initial guess.
 ExpMin= 1.61D-01 ExpMax= 3.05D+03 ExpMxC= 4.57D+02 IAcc=1 IRadAn=         1 AccDes= 0.00D+00
 HarFok:  IExCor=  402 AccDes= 0.00D+00 IRadAn=         1 IDoV= 1
 ScaDFX=  1.000000  1.000000  1.000000  1.000000
 FoFCou: FMM=F IPFlag=           0 FMFlag=      100000 FMFlg1=           0
         NFxFlg=           0 DoJE=T BraDBF=F KetDBF=T FulRan=T
         Omega=  0.000000  0.000000  1.000000  0.000000  0.000000 ICntrl=     500 IOpCl=  0
         NMat0=    1 NMatS0=    1 NMatT0=    0 NMatD0=    1 NMtDS0=    0 NMtDT0=    0
         I1Cent=           4 NGrid=           0.
 Petite list used in FoFCou.
 Requested convergence on RMS density matrix=1.00D-08 within 128 cycles.
 Requested convergence on MAX density matrix=1.00D-06.
 Requested convergence on             energy=1.00D-06.
 No special actions if energy rises.
 Integral accuracy reduced to 1.0D-05 until final iterations.
 Initial convergence to 1.0D-05 achieved.  Increase integral accuracy.
 SCF Done:  E(RB3LYP) =  -310.762507280     A.U. after   14 cycles
             Convg  =    0.4075D-08             -V/T =  2.0107
 Calling FoFJK, ICntrl=      2127 FMM=F ISym2X=1 I1Cent= 0 IOpClX= 0 NMat=1 NMatS=1 NMatT=0.
 ***** Axes restored to original set *****
 -------------------------------------------------------------------
 Center     Atomic                   Forces (Hartrees/Bohr)
 Number     Number              X              Y              Z
 -------------------------------------------------------------------
      1        6           0.003736016    0.018832476    0.000000000
      2        1           0.000795690   -0.007180123    0.000000000
      3        1          -0.005941470   -0.004042437    0.000000000
      4        6           0.033382135   -0.025270246    0.000000000
      5        1          -0.001196344    0.007751635    0.000000000
      6        6          -0.041157081    0.023237308    0.000000000
      7        1           0.000975976   -0.007541404    0.000000000
      8        6           0.038493940   -0.041286395    0.000000000
      9        1          -0.000543768    0.007499891    0.000000000
     10        6          -0.065391355   -0.004781617    0.000000000
     11        1           0.019302156    0.004165040    0.000000000
     12        6           0.012056776    0.017184122    0.000000000
     13        1           0.029302185   -0.014741039    0.000000000
     14        6          -0.012512672    0.032358746    0.000000000
     15        1          -0.005153308   -0.005108917    0.000000000
     16        6          -0.017293004    0.000505566    0.000000000
     17        1           0.006196827    0.003031962    0.000000000
     18        1           0.004947302   -0.004614566    0.000000000
 -------------------------------------------------------------------
 Cartesian Forces:  Max     0.065391355 RMS     0.017038023

 GradGradGradGradGradGradGradGradGradGradGradGradGradGradGradGradGradGrad
 Berny optimization.
 Using GEDIIS/GDIIS optimizer.
 Internal  Forces:  Max     0.057261327 RMS     0.013011005
 Search for a local minimum.
 Step number   2 out of a maximum of   79
 All quantities printed in internal units (Hartrees-Bohrs-Radians)
 Mixed Optimization -- RFO/linear search
 Update second derivatives using D2CorX and points    1    2
 DE= -4.01D-02 DEPred=-3.97D-02 R= 1.01D+00
 SS=  1.41D+00  RLast= 3.00D-01 DXNew= 5.0454D-01 9.0000D-01
 Trust test= 1.01D+00 RLast= 3.00D-01 DXMaxT set to 5.05D-01
 ITU=  1  0
 Use linear search instead of GDIIS.
 Linear search step of   0.556 exceeds DXMaxT=   0.505 but not scaled.
 Quartic linear search produced a step of  1.85302.
 Iteration  1 RMS(Cart)=  0.26220155 RMS(Int)=  0.02334270
 Iteration  2 RMS(Cart)=  0.08465040 RMS(Int)=  0.00214544
 Iteration  3 RMS(Cart)=  0.00261781 RMS(Int)=  0.00000312
 Iteration  4 RMS(Cart)=  0.00000429 RMS(Int)=  0.00000001
 Iteration  5 RMS(Cart)=  0.00000001 RMS(Int)=  0.00000000
 ClnCor:  largest displacement from symmetrization is 2.28D-08 for atom    13.
 Variable       Old X    -DE/DX   Delta X   Delta X   Delta X     New X
                                 (Linear)    (Quad)   (Total)
    R1        2.03559   0.00653   0.02517   0.00000   0.02517   2.06075
    R2        2.03576   0.00611   0.02549   0.00000   0.02549   2.06125
    R3        2.54996  -0.00607  -0.02038   0.00000  -0.02038   2.52958
    R4        2.03630   0.00722   0.02648   0.00000   0.02648   2.06278
    R5        2.84595  -0.03017  -0.11901   0.00000  -0.11901   2.72694
    R6        2.03593   0.00692   0.02580   0.00000   0.02580   2.06173
    R7        2.55929  -0.00064  -0.00309   0.00000  -0.00309   2.55619
    R8        2.03508   0.00667   0.02422   0.00000   0.02422   2.05930
    R9        2.86807  -0.02668  -0.07803   0.00000  -0.07803   2.79003
   R10        2.04188   0.00705   0.03683   0.00000   0.03683   2.07872
   R11        2.57231  -0.00356   0.02104   0.00000   0.02104   2.59335
   R12        2.04281   0.00969   0.03856   0.00000   0.03856   2.08137
   R13        2.83132  -0.03278  -0.14613   0.00000  -0.14613   2.68518
   R14        2.03649   0.00723   0.02684   0.00000   0.02684   2.06333
   R15        2.54628  -0.00586  -0.02719   0.00000  -0.02719   2.51909
   R16        2.03531   0.00634   0.02466   0.00000   0.02466   2.05997
   R17        2.03490   0.00603   0.02390   0.00000   0.02390   2.05880
    A1        2.07979  -0.00466  -0.02340   0.00000  -0.02340   2.05639
    A2        2.10235   0.00162   0.00739   0.00000   0.00739   2.10974
    A3        2.10105   0.00304   0.01601   0.00000   0.01601   2.11706
    A4        2.09909  -0.00154   0.00137   0.00000   0.00137   2.10046
    A5        2.11425   0.00933   0.04046   0.00000   0.04046   2.15470
    A6        2.06984  -0.00779  -0.04183   0.00000  -0.04183   2.02802
    A7        2.06989  -0.00745  -0.04173   0.00000  -0.04173   2.02816
    A8        2.12099   0.00848   0.04194   0.00000   0.04194   2.16294
    A9        2.09230  -0.00104  -0.00021   0.00000  -0.00021   2.09209
   A10        2.09393  -0.00387  -0.00821   0.00000  -0.00821   2.08572
   A11        2.12952   0.01483   0.06876   0.00000   0.06876   2.19829
   A12        2.05974  -0.01096  -0.06055   0.00000  -0.06055   1.99918
   A13        1.78789   0.03242   0.16773   0.00000   0.16773   1.95561
   A14        2.42066  -0.02718  -0.13479   0.00000  -0.13479   2.28587
   A15        2.07464  -0.00524  -0.03294   0.00000  -0.03294   2.04170
   A16        1.68048   0.05726   0.35475   0.00000   0.35475   2.03522
   A17        2.57959  -0.05050  -0.22634   0.00000  -0.22634   2.35325
   A18        2.02312  -0.00676  -0.12841   0.00000  -0.12841   1.89471
   A19        2.08559  -0.00244  -0.01264   0.00000  -0.01264   2.07295
   A20        2.09985   0.00360   0.00277   0.00000   0.00277   2.10262
   A21        2.09774  -0.00116   0.00987   0.00000   0.00987   2.10761
   A22        2.10396   0.00161   0.01039   0.00000   0.01039   2.11436
   A23        2.09565   0.00232   0.00599   0.00000   0.00599   2.10164
   A24        2.08357  -0.00393  -0.01638   0.00000  -0.01638   2.06719
    D1        3.14159   0.00000   0.00000   0.00000   0.00000   3.14159
    D2        0.00000   0.00000   0.00000   0.00000   0.00000   0.00000
    D3        0.00000   0.00000   0.00000   0.00000   0.00000   0.00000
    D4        3.14159   0.00000   0.00000   0.00000   0.00000   3.14159
    D5        0.00000   0.00000   0.00000   0.00000   0.00000   0.00000
    D6        3.14159   0.00000   0.00000   0.00000   0.00000   3.14159
    D7        3.14159   0.00000   0.00000   0.00000   0.00000   3.14159
    D8        0.00000   0.00000   0.00000   0.00000   0.00000   0.00000
    D9        0.00000   0.00000   0.00000   0.00000   0.00000   0.00000
   D10        3.14159   0.00000   0.00000   0.00000   0.00000   3.14159
   D11        3.14159   0.00000   0.00000   0.00000   0.00000   3.14159
   D12        0.00000   0.00000   0.00000   0.00000   0.00000   0.00000
   D13        3.14159   0.00000   0.00000   0.00000   0.00000   3.14159
   D14        0.00000   0.00000   0.00000   0.00000   0.00000   0.00000
   D15        0.00000   0.00000   0.00000   0.00000   0.00000   0.00000
   D16        3.14159   0.00000   0.00000   0.00000   0.00000   3.14159
   D17        3.14159   0.00000   0.00000   0.00000   0.00000   3.14159
   D18        0.00000   0.00000   0.00000   0.00000   0.00000   0.00000
   D19        0.00000   0.00000   0.00000   0.00000   0.00000   0.00000
   D20        3.14159   0.00000   0.00000   0.00000   0.00000   3.14159
   D21        0.00000   0.00000   0.00000   0.00000   0.00000   0.00000
   D22        3.14159   0.00000   0.00000   0.00000   0.00000   3.14159
   D23        3.14159   0.00000   0.00000   0.00000   0.00000   3.14159
   D24        0.00000   0.00000   0.00000   0.00000   0.00000   0.00000
   D25        0.00000   0.00000   0.00000   0.00000   0.00000   0.00000
   D26        3.14159   0.00000   0.00000   0.00000   0.00000   3.14159
   D27        3.14159   0.00000   0.00000   0.00000   0.00000   3.14159
   D28        0.00000   0.00000   0.00000   0.00000   0.00000   0.00000
         Item               Value     Threshold  Converged?
 Maximum Force            0.057261     0.000450     NO 
 RMS     Force            0.013011     0.000300     NO 
 Maximum Displacement     1.274938     0.001800     NO 
 RMS     Displacement     0.341867     0.001200     NO 
 Predicted change in Energy=-2.743897D-02
 GradGradGradGradGradGradGradGradGradGradGradGradGradGradGradGradGradGrad

                          Input orientation:                          
 ---------------------------------------------------------------------
 Center     Atomic      Atomic             Coordinates (Angstroms)
 Number     Number       Type             X           Y           Z
 ---------------------------------------------------------------------
      1          6           0       -5.620561   -3.078949    0.000000
      2          1           0       -5.000596   -3.976079    0.000000
      3          1           0       -6.703598   -3.208557    0.000000
      4          6           0       -5.066002   -1.860629    0.000000
      5          1           0       -5.694880   -0.968411    0.000000
      6          6           0       -3.640658   -1.635355    0.000000
      7          1           0       -3.011971   -2.527025    0.000000
      8          6           0       -3.070149   -0.408872    0.000000
      9          1           0       -3.703754    0.477729    0.000000
     10          6           0       -1.620886   -0.126991    0.000000
     11          1           0       -1.410205    0.952655    0.000000
     12          6           0       -0.539800   -0.972313    0.000000
     13          1           0        0.455412   -0.500440    0.000000
     14          6           0       -0.371346   -2.383229    0.000000
     15          1           0       -1.259365   -3.018520    0.000000
     16          6           0        0.849620   -2.918252    0.000000
     17          1           0        1.740454   -2.289993    0.000000
     18          1           0        0.977712   -4.000166    0.000000
 ---------------------------------------------------------------------
                    Distance matrix (angstroms):
                    1          2          3          4          5
     1  C    0.000000
     2  H    1.090504   0.000000
     3  H    1.090765   1.867968   0.000000
     4  C    1.338596   2.116461   2.120998   0.000000
     5  H    2.111846   3.086762   2.456780   1.091577   0.000000
     6  C    2.450302   2.707106   3.443337   1.443036   2.159779
     7  H    2.666338   2.460567   3.754011   2.159427   3.102785
     8  C    3.692413   4.056057   4.586959   2.468001   2.683710
     9  H    4.040310   4.638772   4.752660   2.706222   2.460875
    10  C    4.971062   5.122297   5.943906   3.856725   4.159978
    11  H    5.829316   6.097813   6.733179   4.612962   4.695629
    12  C    5.500185   5.377854   6.556920   4.612549   5.155081
    13  H    6.600466   6.469010   7.654105   5.686486   6.168070
    14  C    5.295118   4.895623   6.385811   4.723653   5.508332
    15  H    4.361614   3.861830   5.447549   3.978843   4.886383
    16  C    6.472176   5.945084   7.558795   6.009422   6.828789
    17  H    7.403174   6.948715   8.493867   6.819985   7.551872
    18  H    6.662271   5.978357   7.721993   6.411248   7.329054
                    6          7          8          9         10
     6  C    0.000000
     7  H    1.091019   0.000000
     8  C    1.352679   2.118952   0.000000
     9  H    2.114026   3.083360   1.089733   0.000000
    10  C    2.520842   2.774037   1.476422   2.168877   0.000000
    11  H    3.416536   3.830643   2.146897   2.342204   1.100010
    12  C    3.170953   2.920404   2.592321   3.480406   1.372339
    13  H    4.250391   4.016191   3.526750   4.272643   2.109615
    14  C    3.353761   2.644537   3.343893   4.392041   2.579139
    15  H    2.753852   1.820218   3.176350   4.266004   2.914041
    16  C    4.669949   3.881359   4.654200   5.680308   3.727538
    17  H    5.420786   4.758333   5.165319   6.107347   3.997147
    18  H    5.188610   4.252966   5.411338   6.478246   4.664140
                   11         12         13         14         15
    11  H    0.000000
    12  C    2.112607   0.000000
    13  H    2.364744   1.101414   0.000000
    14  C    3.493902   1.420936   2.056313   0.000000
    15  H    3.974039   2.169040   3.046504   1.091866   0.000000
    16  C    4.482269   2.391060   2.449737   1.333045   2.111368
    17  H    4.521219   2.633598   2.203141   2.113858   3.087016
    18  H    5.498417   3.386848   3.538485   2.105812   2.442979
                   16         17         18
    16  C    0.000000
    17  H    1.090089   0.000000
    18  H    1.089470   1.872557   0.000000
 Stoichiometry    C8H10
 Framework group  CS[SG(C8H10)]
 Deg. of freedom    33
 Full point group                 CS      NOp   2
 Largest Abelian subgroup         CS      NOp   2
 Largest concise Abelian subgroup C1      NOp   1
                         Standard orientation:                         
 ---------------------------------------------------------------------
 Center     Atomic      Atomic             Coordinates (Angstroms)
 Number     Number       Type             X           Y           Z
 ---------------------------------------------------------------------
      1          6           0       -1.723130    3.064599    0.000000
      2          1           0       -0.683439    3.393601    0.000000
      3          1           0       -2.499541    3.830728    0.000000
      4          6           0       -2.031520    1.762011    0.000000
      5          1           0       -3.075243    1.442353    0.000000
      6          6           0       -1.043237    0.710512    0.000000
      7          1           0        0.000000    1.029854    0.000000
      8          6           0       -1.344025   -0.608301    0.000000
      9          1           0       -2.388042   -0.920624    0.000000
     10          6           0       -0.371531   -1.719190    0.000000
     11          1           0       -0.866678   -2.701458    0.000000
     12          6           0        1.000798   -1.713713    0.000000
     13          1           0        1.498061   -2.696485    0.000000
     14          6           0        1.998555   -0.702011    0.000000
     15          1           0        1.686144    0.344207    0.000000
     16          6           0        3.291261   -1.027460    0.000000
     17          1           0        3.610205   -2.069847    0.000000
     18          1           0        4.055504   -0.251008    0.000000
 ---------------------------------------------------------------------
 Rotational constants (GHZ):      3.8428295      0.9412430      0.7560580
 Standard basis: 6-31G(d) (6D, 7F)
 There are   108 symmetry adapted basis functions of A'  symmetry.
 There are    32 symmetry adapted basis functions of A"  symmetry.
 Integral buffers will be    131072 words long.
 Raffenetti 2 integral format.
 Two-electron integral symmetry is turned on.
   140 basis functions,   264 primitive gaussians,   140 cartesian basis functions
    29 alpha electrons       29 beta electrons
       nuclear repulsion energy       308.5190346247 Hartrees.
 NAtoms=   18 NActive=   18 NUniq=   18 SFac= 1.00D+00 NAtFMM=   60 NAOKFM=F Big=F
 One-electron integrals computed using PRISM.
 NBasis=   140 RedAO= T  NBF=   108    32
 NBsUse=   140 1.00D-06 NBFU=   108    32
 Initial guess read from the read-write file.
 B after Tr=     0.000000    0.000000    0.000000
         Rot=    1.000000    0.000000    0.000000    0.000000 Ang=   0.00 deg.
 Initial guess orbital symmetries:
       Occupied  (A') (A') (A') (A') (A') (A') (A') (A') (A') (A')
                 (A') (A') (A') (A') (A') (A') (A') (A') (A') (A')
                 (A') (A') (A') (A') (A") (A') (A") (A") (A")
       Virtual   (A") (A") (A") (A') (A') (A") (A') (A') (A') (A')
                 (A') (A') (A') (A') (A') (A') (A') (A') (A') (A')
                 (A') (A') (A') (A") (A") (A') (A") (A') (A') (A")
                 (A') (A") (A') (A") (A') (A') (A') (A") (A") (A')
                 (A') (A') (A') (A') (A') (A') (A') (A') (A') (A')
                 (A') (A') (A') (A') (A') (A') (A') (A') (A') (A")
                 (A') (A') (A") (A') (A") (A") (A") (A") (A') (A")
                 (A") (A') (A") (A') (A') (A') (A') (A") (A') (A')
                 (A") (A') (A') (A') (A") (A') (A') (A') (A") (A')
                 (A') (A") (A") (A') (A") (A') (A') (A') (A') (A')
                 (A') (A') (A') (A') (A') (A') (A') (A') (A') (A')
                 (A')
 Harris functional with IExCor=  402 diagonalized for initial guess.
 ExpMin= 1.61D-01 ExpMax= 3.05D+03 ExpMxC= 4.57D+02 IAcc=1 IRadAn=         1 AccDes= 0.00D+00
 HarFok:  IExCor=  402 AccDes= 0.00D+00 IRadAn=         1 IDoV= 1
 ScaDFX=  1.000000  1.000000  1.000000  1.000000
 FoFCou: FMM=F IPFlag=           0 FMFlag=      100000 FMFlg1=           0
         NFxFlg=           0 DoJE=T BraDBF=F KetDBF=T FulRan=T
         Omega=  0.000000  0.000000  1.000000  0.000000  0.000000 ICntrl=     500 IOpCl=  0
         NMat0=    1 NMatS0=    1 NMatT0=    0 NMatD0=    1 NMtDS0=    0 NMtDT0=    0
         I1Cent=           4 NGrid=           0.
 Petite list used in FoFCou.
 Requested convergence on RMS density matrix=1.00D-08 within 128 cycles.
 Requested convergence on MAX density matrix=1.00D-06.
 Requested convergence on             energy=1.00D-06.
 No special actions if energy rises.
 Integral accuracy reduced to 1.0D-05 until final iterations.
 Initial convergence to 1.0D-05 achieved.  Increase integral accuracy.
 SCF Done:  E(RB3LYP) =  -310.789139917     A.U. after   14 cycles
             Convg  =    0.7242D-08             -V/T =  2.0101
 Calling FoFJK, ICntrl=      2127 FMM=F ISym2X=1 I1Cent= 0 IOpClX= 0 NMat=1 NMatS=1 NMatT=0.
 ***** Axes restored to original set *****
 -------------------------------------------------------------------
 Center     Atomic                   Forces (Hartrees/Bohr)
 Number     Number              X              Y              Z
 -------------------------------------------------------------------
      1        6          -0.006718155   -0.004579381    0.000000000
      2        1          -0.002708167    0.000723752    0.000000000
      3        1           0.003774620   -0.001515950    0.000000000
      4        6           0.001380118    0.004652301    0.000000000
      5        1          -0.000731134   -0.001422747    0.000000000
      6        6          -0.001164655   -0.000022640    0.000000000
      7        1          -0.004452577    0.003266908    0.000000000
      8        6           0.021489919   -0.002240179    0.000000000
      9        1          -0.001359907   -0.001534310    0.000000000
     10        6          -0.006580259   -0.004033845    0.000000000
     11        1           0.002928078   -0.008422172    0.000000000
     12        6           0.004139988    0.035782118    0.000000000
     13        1          -0.008874306    0.006180049    0.000000000
     14        6          -0.020212810   -0.010223320    0.000000000
     15        1           0.007247083   -0.001750447    0.000000000
     16        6           0.009106329   -0.014867399    0.000000000
     17        1          -0.000649212   -0.002845708    0.000000000
     18        1           0.003385047    0.002852972    0.000000000
 -------------------------------------------------------------------
 Cartesian Forces:  Max     0.035782118 RMS     0.007544649

 GradGradGradGradGradGradGradGradGradGradGradGradGradGradGradGradGradGrad
 Berny optimization.
 Using GEDIIS/GDIIS optimizer.
 Internal  Forces:  Max     0.026496876 RMS     0.006361510
 Search for a local minimum.
 Step number   3 out of a maximum of   79
 All quantities printed in internal units (Hartrees-Bohrs-Radians)
 Mixed Optimization -- RFO/linear search
 Update second derivatives using D2CorX and points    2    3
 ITU=  0  1  0
 Use linear search instead of GDIIS.
 DSYEVD returned Info=          97 IAlg= 4 N=    48 NDim=    48 NE2=      666571 trying DSYEV.
     Eigenvalues ---    0.00237   0.00237   0.00237   0.01483   0.01501
     Eigenvalues ---    0.01507   0.01507   0.01513   0.01531   0.02681
     Eigenvalues ---    0.02681   0.02681   0.02681   0.02681   0.02681
     Eigenvalues ---    0.14419   0.16000   0.16000   0.16000   0.16000
     Eigenvalues ---    0.16000   0.16000   0.16000   0.16000   0.16503
     Eigenvalues ---    0.19313   0.22000   0.22000   0.22000   0.22000
     Eigenvalues ---    0.23944   0.28193   0.28519   0.32587   0.37093
     Eigenvalues ---    0.37230   0.37230   0.37230   0.37230   0.37230
     Eigenvalues ---    0.37230   0.37230   0.37230   0.37863   0.53869
     Eigenvalues ---    0.53930   0.53930   0.54715
 RFO step:  Lambda=-8.05264362D-03 EMin= 2.36824103D-03
 Quartic linear search produced a step of -0.10614.
 Iteration  1 RMS(Cart)=  0.09829426 RMS(Int)=  0.00165209
 Iteration  2 RMS(Cart)=  0.00308065 RMS(Int)=  0.00000030
 Iteration  3 RMS(Cart)=  0.00000056 RMS(Int)=  0.00000000
 ClnCor:  largest displacement from symmetrization is 2.37D-11 for atom    18.
 Variable       Old X    -DE/DX   Delta X   Delta X   Delta X     New X
                                 (Linear)    (Quad)   (Total)
    R1        2.06075  -0.00213  -0.00267  -0.00076  -0.00343   2.05733
    R2        2.06125  -0.00357  -0.00271  -0.00421  -0.00692   2.05433
    R3        2.52958   0.00724   0.00216   0.00869   0.01086   2.54044
    R4        2.06278  -0.00074  -0.00281   0.00281   0.00000   2.06278
    R5        2.72694   0.00527   0.01263  -0.00660   0.00603   2.73297
    R6        2.06173  -0.00523  -0.00274  -0.00785  -0.01059   2.05114
    R7        2.55619   0.00350   0.00033   0.00527   0.00560   2.56180
    R8        2.05930  -0.00046  -0.00257   0.00311   0.00054   2.05984
    R9        2.79003  -0.00882   0.00828  -0.04419  -0.03591   2.75413
   R10        2.07872  -0.00770  -0.00391  -0.01256  -0.01647   2.06224
   R11        2.59335  -0.01394  -0.00223  -0.02147  -0.02370   2.56964
   R12        2.08137  -0.00537  -0.00409  -0.00618  -0.01027   2.07110
   R13        2.68518   0.02650   0.01551   0.05426   0.06977   2.75495
   R14        2.06333  -0.00488  -0.00285  -0.00683  -0.00967   2.05365
   R15        2.51909   0.01681   0.00289   0.02368   0.02656   2.54565
   R16        2.05997  -0.00217  -0.00262  -0.00095  -0.00356   2.05641
   R17        2.05880  -0.00244  -0.00254  -0.00174  -0.00428   2.05452
    A1        2.05639  -0.00259   0.00248  -0.01915  -0.01667   2.03972
    A2        2.10974   0.00115  -0.00078   0.00790   0.00711   2.11685
    A3        2.11706   0.00144  -0.00170   0.01125   0.00955   2.12661
    A4        2.10046  -0.00333  -0.00015  -0.01503  -0.01518   2.08529
    A5        2.15470   0.00373  -0.00429   0.02300   0.01871   2.17341
    A6        2.02802  -0.00040   0.00444  -0.00797  -0.00353   2.02449
    A7        2.02816  -0.00106   0.00443  -0.01494  -0.01051   2.01766
    A8        2.16294  -0.00150  -0.00445   0.00231  -0.00214   2.16079
    A9        2.09209   0.00256   0.00002   0.01263   0.01265   2.10474
   A10        2.08572  -0.01132   0.00087  -0.04900  -0.04813   2.03758
   A11        2.19829   0.01851  -0.00730   0.08610   0.07880   2.27709
   A12        1.99918  -0.00720   0.00643  -0.03710  -0.03067   1.96851
   A13        1.95561  -0.00131  -0.01780   0.03693   0.01913   1.97474
   A14        2.28587   0.01195   0.01431   0.02042   0.03473   2.32060
   A15        2.04170  -0.01063   0.00350  -0.05735  -0.05386   1.98784
   A16        2.03522  -0.00684  -0.03765   0.02821  -0.00944   2.02579
   A17        2.35325  -0.00586   0.02402  -0.06923  -0.04520   2.30804
   A18        1.89471   0.01270   0.01363   0.04101   0.05464   1.94936
   A19        2.07295   0.00153   0.00134   0.01153   0.01288   2.08583
   A20        2.10262   0.00857  -0.00029   0.03546   0.03517   2.13779
   A21        2.10761  -0.01010  -0.00105  -0.04699  -0.04804   2.05957
   A22        2.11436   0.00014  -0.00110   0.00283   0.00172   2.11608
   A23        2.10164   0.00374  -0.00064   0.02193   0.02130   2.12294
   A24        2.06719  -0.00388   0.00174  -0.02476  -0.02302   2.04417
    D1        3.14159   0.00000   0.00000   0.00000   0.00000   3.14159
    D2        0.00000   0.00000   0.00000   0.00000   0.00000   0.00000
    D3        0.00000   0.00000   0.00000   0.00000   0.00000   0.00000
    D4        3.14159   0.00000   0.00000   0.00000   0.00000   3.14159
    D5        0.00000   0.00000   0.00000   0.00000   0.00000   0.00000
    D6        3.14159   0.00000   0.00000   0.00000   0.00000   3.14159
    D7        3.14159   0.00000   0.00000   0.00000   0.00000   3.14159
    D8        0.00000   0.00000   0.00000   0.00000   0.00000   0.00000
    D9        0.00000   0.00000   0.00000   0.00000   0.00000   0.00000
   D10        3.14159   0.00000   0.00000   0.00000   0.00000   3.14159
   D11        3.14159   0.00000   0.00000   0.00000   0.00000   3.14159
   D12        0.00000   0.00000   0.00000   0.00000   0.00000   0.00000
   D13        3.14159   0.00000   0.00000   0.00000   0.00000   3.14159
   D14        0.00000   0.00000   0.00000   0.00000   0.00000   0.00000
   D15        0.00000   0.00000   0.00000   0.00000   0.00000   0.00000
   D16        3.14159   0.00000   0.00000   0.00000   0.00000   3.14159
   D17        3.14159   0.00000   0.00000   0.00000   0.00000   3.14159
   D18        0.00000   0.00000   0.00000   0.00000   0.00000   0.00000
   D19        0.00000   0.00000   0.00000   0.00000   0.00000   0.00000
   D20        3.14159   0.00000   0.00000   0.00000   0.00000   3.14159
   D21        0.00000   0.00000   0.00000   0.00000   0.00000   0.00000
   D22        3.14159   0.00000   0.00000   0.00000   0.00000   3.14159
   D23        3.14159   0.00000   0.00000   0.00000   0.00000   3.14159
   D24        0.00000   0.00000   0.00000   0.00000   0.00000   0.00000
   D25        0.00000   0.00000   0.00000   0.00000   0.00000   0.00000
   D26        3.14159   0.00000   0.00000   0.00000   0.00000   3.14159
   D27        3.14159   0.00000   0.00000   0.00000   0.00000   3.14159
   D28        0.00000   0.00000   0.00000   0.00000   0.00000   0.00000
         Item               Value     Threshold  Converged?
 Maximum Force            0.026497     0.000450     NO 
 RMS     Force            0.006362     0.000300     NO 
 Maximum Displacement     0.340919     0.001800     NO 
 RMS     Displacement     0.097104     0.001200     NO 
 Predicted change in Energy=-4.549762D-03
 GradGradGradGradGradGradGradGradGradGradGradGradGradGradGradGradGradGrad

                          Input orientation:                          
 ---------------------------------------------------------------------
 Center     Atomic      Atomic             Coordinates (Angstroms)
 Number     Number       Type             X           Y           Z
 ---------------------------------------------------------------------
      1          6           0       -5.736367   -3.044326    0.000000
      2          1           0       -5.181003   -3.980710    0.000000
      3          1           0       -6.821076   -3.116457    0.000000
      4          6           0       -5.104380   -1.857799    0.000000
      5          1           0       -5.690569   -0.936971    0.000000
      6          6           0       -3.667411   -1.694436    0.000000
      7          1           0       -3.090798   -2.614027    0.000000
      8          6           0       -3.045258   -0.489988    0.000000
      9          1           0       -3.684978    0.392565    0.000000
     10          6           0       -1.626049   -0.158442    0.000000
     11          1           0       -1.436637    0.916286    0.000000
     12          6           0       -0.497271   -0.916670    0.000000
     13          1           0        0.451483   -0.368004    0.000000
     14          6           0       -0.285539   -2.359069    0.000000
     15          1           0       -1.143538   -3.026044    0.000000
     16          6           0        0.943802   -2.909891    0.000000
     17          1           0        1.839305   -2.291616    0.000000
     18          1           0        1.085709   -3.987797    0.000000
 ---------------------------------------------------------------------
                    Distance matrix (angstroms):
                    1          2          3          4          5
     1  C    0.000000
     2  H    1.088690   0.000000
     3  H    1.087105   1.853854   0.000000
     4  C    1.344341   2.124294   2.128677   0.000000
     5  H    2.107852   3.086099   2.455240   1.091577   0.000000
     6  C    2.470381   2.741899   3.459443   1.446225   2.160306
     7  H    2.680334   2.497354   3.763962   2.150906   3.093756
     8  C    3.710352   4.092255   4.599472   2.472022   2.682809
     9  H    4.002551   4.622080   4.706203   2.660609   2.406255
    10  C    5.022254   5.219907   5.978140   3.871253   4.138410
    11  H    5.845864   6.164483   6.727199   4.598683   4.640097
    12  C    5.654648   5.596936   6.695489   4.702253   5.193338
    13  H    6.741824   6.691528   7.774581   5.752139   6.168349
    14  C    5.493733   5.157062   6.579277   4.844843   5.588982
    15  H    4.592865   4.148796   5.678258   4.129536   5.003970
    16  C    6.681522   6.217708   7.767625   6.139007   6.921510
    17  H    7.612974   7.220648   8.699572   6.957224   7.650756
    18  H    6.887007   6.266716   7.954652   6.546304   7.431385
                    6          7          8          9         10
     6  C    0.000000
     7  H    1.085417   0.000000
     8  C    1.355644   2.124528   0.000000
     9  H    2.087075   3.064742   1.090019   0.000000
    10  C    2.554689   2.859264   1.457421   2.131384   0.000000
    11  H    3.433981   3.898636   2.136649   2.308532   1.091292
    12  C    3.264155   3.099582   2.583465   3.446094   1.359797
    13  H    4.327206   4.194327   3.498868   4.205802   2.088075
    14  C    3.446563   2.816822   3.333094   4.373519   2.576766
    15  H    2.853614   1.990372   3.169877   4.259789   2.907913
    16  C    4.768712   4.045434   4.665676   5.686107   3.764917
    17  H    5.539002   4.940634   5.206229   6.141866   4.069288
    18  H    5.277467   4.396641   5.412907   6.476652   4.692291
                   11         12         13         14         15
    11  H    0.000000
    12  C    2.059644   0.000000
[...]
    A1        2.03598   0.00003   0.00000   0.00028   0.00028   2.03625
    A2        2.12221  -0.00003   0.00000  -0.00025  -0.00025   2.12196
    A3        2.12499   0.00000   0.00000  -0.00002  -0.00002   2.12497
    A4        2.07946   0.00004   0.00000   0.00031   0.00031   2.07977
    A5        2.17305  -0.00001   0.00000  -0.00011  -0.00011   2.17294
    A6        2.03068  -0.00003   0.00000  -0.00020  -0.00020   2.03047
    A7        2.02178  -0.00004   0.00000  -0.00033  -0.00033   2.02145
    A8        2.14455   0.00001   0.00000   0.00001   0.00001   2.14456
    A9        2.11686   0.00002   0.00000   0.00031   0.00031   2.11717
   A10        2.01673   0.00006   0.00000   0.00029   0.00029   2.01702
   A11        2.29115  -0.00002   0.00000   0.00009   0.00009   2.29124
   A12        1.97530  -0.00004   0.00000  -0.00038  -0.00038   1.97493
   A13        1.96375   0.00002   0.00000  -0.00003  -0.00003   1.96372
   A14        2.32258  -0.00004   0.00000  -0.00004  -0.00004   2.32254
   A15        1.99685   0.00002   0.00000   0.00008   0.00008   1.99693
   A16        2.02079   0.00001   0.00000  -0.00004  -0.00004   2.02075
   A17        2.27149  -0.00002   0.00000  -0.00006  -0.00006   2.27143
   A18        1.99091   0.00001   0.00000   0.00010   0.00010   1.99101
   A19        2.07441  -0.00013   0.00000  -0.00110  -0.00110   2.07331
   A20        2.14565   0.00002   0.00000   0.00018   0.00018   2.14582
   A21        2.06313   0.00012   0.00000   0.00092   0.00092   2.06405
   A22        2.12122  -0.00003   0.00000  -0.00034  -0.00034   2.12089
   A23        2.12590  -0.00003   0.00000  -0.00018  -0.00018   2.12573
   A24        2.03606   0.00006   0.00000   0.00051   0.00051   2.03657
    D1        3.14159   0.00000   0.00000   0.00000   0.00000   3.14159
    D2        0.00000   0.00000   0.00000   0.00000   0.00000   0.00000
    D3        0.00000   0.00000   0.00000   0.00000   0.00000   0.00000
    D4        3.14159   0.00000   0.00000   0.00000   0.00000   3.14159
    D5        0.00000   0.00000   0.00000   0.00000   0.00000   0.00000
    D6        3.14159   0.00000   0.00000   0.00000   0.00000   3.14159
    D7        3.14159   0.00000   0.00000   0.00000   0.00000   3.14159
    D8        0.00000   0.00000   0.00000   0.00000   0.00000   0.00000
    D9        0.00000   0.00000   0.00000   0.00000   0.00000   0.00000
   D10        3.14159   0.00000   0.00000   0.00000   0.00000   3.14159
   D11        3.14159   0.00000   0.00000   0.00000   0.00000   3.14159
   D12        0.00000   0.00000   0.00000   0.00000   0.00000   0.00000
   D13        3.14159   0.00000   0.00000   0.00000   0.00000   3.14159
   D14        0.00000   0.00000   0.00000   0.00000   0.00000   0.00000
   D15        0.00000   0.00000   0.00000   0.00000   0.00000   0.00000
   D16        3.14159   0.00000   0.00000   0.00000   0.00000   3.14159
   D17        3.14159   0.00000   0.00000   0.00000   0.00000   3.14159
   D18        0.00000   0.00000   0.00000   0.00000   0.00000   0.00000
   D19        0.00000   0.00000   0.00000   0.00000   0.00000   0.00000
   D20        3.14159   0.00000   0.00000   0.00000   0.00000   3.14159
   D21        0.00000   0.00000   0.00000   0.00000   0.00000   0.00000
   D22        3.14159   0.00000   0.00000   0.00000   0.00000   3.14159
   D23        3.14159   0.00000   0.00000   0.00000   0.00000   3.14159
   D24        0.00000   0.00000   0.00000   0.00000   0.00000   0.00000
   D25        0.00000   0.00000   0.00000   0.00000   0.00000   0.00000
   D26        3.14159   0.00000   0.00000   0.00000   0.00000   3.14159
   D27        3.14159   0.00000   0.00000   0.00000   0.00000   3.14159
   D28        0.00000   0.00000   0.00000   0.00000   0.00000   0.00000
         Item               Value     Threshold  Converged?
 Maximum Force            0.000188     0.000450     YES
 RMS     Force            0.000047     0.000300     YES
 Maximum Displacement     0.002138     0.001800     NO 
 RMS     Displacement     0.000438     0.001200     YES
 Predicted change in Energy=-3.018145D-07
 GradGradGradGradGradGradGradGradGradGradGradGradGradGradGradGradGradGrad

 1\1\GINC-NISER-THINKCENTRE-M93P\Freq\RB3LYP\6-31G(d)\C8H10\STUDENT\02-
 Mar-2021\0\\#N Geom=AllCheck Guess=TCheck SCRF=Check GenChk RB3LYP/6-3
 1G(d) Freq\\Title Card Required\\0,1\C,-5.7354529467,-3.0416531806,0.\
 H,-5.1978373976,-3.9872104329,0.\H,-6.8195014108,-3.097864848,0.\C,-5.
 0882690886,-1.8636905311,0.\H,-5.6673978832,-0.9394351789,0.\C,-3.6465
 622165,-1.7192426437,0.\H,-3.0779642813,-2.6448972463,0.\C,-3.02747020
 83,-0.5121302077,0.\H,-3.6886612102,0.3558763977,0.\C,-1.6174220907,-0
 .1573938504,0.\H,-1.4584408843,0.9201039236,0.\C,-0.4738164352,-0.8945
 273364,0.\H,0.4565383307,-0.3263482008,0.\C,-0.2885424876,-2.332420711
 7,0.\H,-1.1644003399,-2.9733860509,0.\C,0.9244554306,-2.9134443264,0.\
 H,1.8382600878,-2.3229879357,0.\H,1.0419113418,-3.9927456698,0.\\Versi
 on=EM64L-G09RevC.01\State=1-A'\HF=-310.7939604\RMSD=8.722e-09\RMSF=6.9
 26e-05\ZeroPoint=0.1530529\Thermal=0.1611231\Dipole=0.0430935,-0.01297
 25,0.\DipoleDeriv=-0.1809247,-0.1485158,0.,-0.0942968,0.0032463,0.,0.,
 0.,-0.3155182,-0.0078249,0.0924488,0.,0.0447385,-0.0535871,0.,0.,0.,0.
 1382352,-0.1108944,-0.0221941,0.,-0.0106532,0.0397218,0.,0.,0.,0.13782
 37,0.3261368,0.0595366,0.,-0.180471,0.1064875,0.,0.,0.,-0.0765688,-0.0
 390958,0.0311015,0.,0.1157555,-0.0832221,0.,0.,0.,0.1072865,-0.0257815
 ,0.0205594,0.,0.0140841,0.032544,0.,0.,0.,-0.0862812,-0.013852,0.04232
 36,0.,0.0931244,-0.0676588,0.,0.,0.,0.106788,0.2369208,-0.1640289,0.,-
 0.3436766,0.0502473,0.,0.,0.,-0.1102289,-0.0596151,0.0969581,0.,0.0958
 856,-0.0650555,0.,0.,0.,0.1074043,0.0687747,0.07667,0.,0.4848144,0.121
 6332,0.,0.,0.,-0.1344308,0.0033733,-0.0191847,0.,-0.0427011,-0.1471961
 ,0.,0.,0.,0.1031196,0.0595097,0.0147917,0.,-0.1714453,0.0980129,0.,0.,
 0.,-0.0970497,-0.105098,-0.0863445,0.,-0.0209166,-0.0194899,0.,0.,0.,0
 .1007962,-0.1355935,0.0433088,0.,-0.2043341,0.0477707,0.,0.,0.,-0.0600
 55,-0.0244004,-0.0851229,0.,-0.0325345,-0.0137645,0.,0.,0.,0.1066228,0
 .0293593,0.0951742,0.,0.3038029,0.0580986,0.,0.,0.,-0.2986626,-0.04184
 13,-0.0408933,0.,-0.0964427,-0.019039,0.,0.,0.,0.135999,0.020847,-0.00
 65884,0.,0.0452665,-0.0887493,0.,0.,0.,0.1347199\Polar=189.889504,7.25
 09865,103.9446094,0.,0.,28.9990503\PG=CS [SG(C8H10)]\NImag=1\\0.700604
 68,0.08157803,0.78408083,0.,0.,0.10111721,-0.13192082,0.12365712,0.,0.
 12964656,0.12012574,-0.26622067,0.,-0.13173374,0.28510315,0.,0.,-0.033
 08945,0.,0.,0.02178200,-0.34591145,-0.01193672,0.,-0.01008647,-0.00241
 598,0.,0.36493556,-0.00743149,-0.05905673,0.,0.02525718,0.00416780,0.,
 0.01491011,0.05526349,0.,0.,-0.03125792,0.,0.,0.00221396,0.,0.,0.02132
 843,-0.20153924,-0.15693925,0.,0.01188923,0.01660970,0.,-0.01092526,-0
 .03066372,0.,0.64001386,-0.17224418,-0.43700303,0.,-0.01357784,-0.0222
 4835,0.,0.00231860,0.00258985,0.,0.06706992,0.81413450,0.,0.,-0.049096
 63,0.,0.,0.00452000,0.,0.,0.00413227,0.,0.,0.13205698,0.01129669,-0.01
 512229,0.,-0.00076004,-0.00317600,0.,0.00110784,0.00009191,0.,-0.13583
 705,0.12200895,0.,0.14321950,0.01671093,-0.02250085,0.,-0.00283752,-0.
 00313080,0.,-0.00029261,0.00124455,0.,0.12106442,-0.24903927,0.,-0.130
 55486,0.26868425,0.,0.,0.00509570,0.,0.,0.01109225,0.,0.,-0.00695604,0
 .,0.,-0.04185682,0.,0.,0.02742431,-0.03095862,-0.02900952,0.,0.0012979
 0,0.00249274,0.,0.00112633,-0.00027834,0.,-0.26231338,0.01291696,0.,-0
 .01574014,-0.00209997,0.,0.63009393,-0.04312249,-0.01079921,0.,-0.0015
 2167,0.00154317,0.,-0.00257744,-0.00469664,0.,0.01098567,-0.09461942,0
 .,0.02783759,0.00250865,0.,0.03974493,0.80011718,0.,0.,0.00632903,0.,0
 .,-0.00746254,0.,0.,0.01175014,0.,0.,-0.06089553,0.,0.,0.00312969,0.,0
 .,0.12942465,0.00150961,0.00137213,0.,0.00006987,-0.00141718,0.,0.0003
 9973,-0.00038699,0.,-0.01560114,0.02807605,0.,-0.00508645,-0.00095376,
 0.,-0.13466514,0.12439144,0.,0.14751039,-0.00098814,0.00122930,0.,0.00
 060008,0.00034877,0.,0.00010592,0.00018604,0.,-0.00249436,0.00315276,0
 .,-0.00121360,0.00050348,0.,0.12258113,-0.25880726,0.,-0.13656541,0.27
 566679,0.,0.,-0.00158035,0.,0.,0.00033393,0.,0.,-0.00028639,0.,0.,0.00
 360882,0.,0.,0.00360028,0.,0.,-0.04032787,0.,0.,0.02322311,-0.00016337
 ,0.01071250,0.,0.00016797,-0.00053379,0.,-0.00065225,-0.00141598,0.,-0
 .03744867,-0.04699703,0.,0.00123313,-0.00159791,0.,-0.16707821,-0.1232
 9892,0.,0.01264594,0.01864527,0.,0.63317779,0.00801170,0.01077260,0.,-
 0.00004355,0.00009188,0.,0.00013670,0.00070183,0.,-0.03210887,-0.01538
 073,0.,0.00223080,0.00118681,0.,-0.12859219,-0.40543107,0.,-0.01328138
 ,-0.02087880,0.,0.06538267,0.76093166,0.,0.,0.00248705,0.,0.,0.0000954
 3,0.,0.,-0.00000467,0.,0.,0.00510383,0.,0.,-0.00162474,0.,0.,-0.054028
 78,0.,0.,0.00496178,0.,0.,0.12948132,0.00027704,-0.00005054,0.,-0.0002
 1115,0.00007839,0.,0.00001475,0.00010630,0.,0.00056788,-0.00304554,0.,
 0.00017875,0.00040887,0.,0.01023287,-0.01065550,0.,-0.00062780,-0.0027
 1562,0.,-0.15501252,0.12806994,0.,0.16965875,-0.00055250,0.00039476,0.
 ,0.00012692,0.00030307,0.,-0.00006812,-0.00000013,0.,0.00268873,0.0008
 2404,0.,-0.00164522,0.00038005,0.,0.01906387,-0.02662951,0.,-0.0032477
 8,-0.00368861,0.,0.12871600,-0.22603320,0.,-0.13474947,0.24626783,0.,0
 .,0.00012841,0.,0.,0.00036062,0.,0.,0.00024091,0.,0.,-0.00739340,0.,0.
 ,0.00022586,0.,0.,0.00516531,0.,0.,0.01056447,0.,0.,-0.03971861,0.,0.,
 0.02617570,-0.00386209,-0.00684080,0.,-0.00013524,0.00008307,0.,0.0001
 4531,-0.00003325,0.,0.01622960,0.00758461,0.,0.00041750,0.00013284,0.,
 -0.03324839,-0.03387986,0.,0.00032056,0.00033240,0.,-0.23602199,-0.001
 16758,0.,-0.02092525,-0.00811617,0.,0.70983024,-0.00044110,0.00079440,
 0.,0.00008985,0.00003382,0.,-0.00014725,-0.00027511,0.,-0.00050426,-0.
 00351997,0.,-0.00040028,0.00010968,0.,-0.02975114,-0.00029127,0.,0.000
 91598,0.00154282,0.,-0.05842620,-0.11910572,0.,0.02573214,0.00578435,0
 .,-0.08557549,0.67248021,0.,0.,0.00004578,0.,0.,0.00014601,0.,0.,-0.00
 131037,0.,0.,0.01100854,0.,0.,-0.00019426,0.,0.,0.00422504,0.,0.,-0.00
 602266,0.,0.,-0.05902556,0.,0.,0.00314758,0.,0.,0.12830993,-0.00052767
 ,-0.00004142,0.,0.00001798,-0.00000375,0.,-0.00008089,-0.00011841,0.,0
 .00044018,-0.00109165,0.,-0.00004416,0.00006139,0.,-0.00548440,0.00069
 009,0.,0.00011742,-0.00006959,0.,-0.00776837,-0.03318315,0.,0.00049180
 ,-0.00052458,0.,-0.06188538,-0.04133456,0.,0.07537785,-0.00028906,0.00
 003709,0.,0.00002068,0.00000591,0.,-0.00003741,-0.00006054,0.,0.000241
 13,-0.00054608,0.,-0.00007274,0.00003137,0.,-0.00176980,0.00174110,0.,
 0.00014893,0.00017281,0.,0.00055293,-0.00786901,0.,-0.00005903,0.00154
 739,0.,-0.04061983,-0.32417428,0.,0.04101843,0.34598476,0.,0.,-0.00014
 138,0.,0.,0.00000767,0.,0.,0.00001056,0.,0.,0.00004085,0.,0.,0.0000067
 9,0.,0.,0.00289875,0.,0.,-0.00015242,0.,0.,0.00324571,0.,0.,-0.0013077
 5,0.,0.,-0.03781757,0.,0.,0.02559879,0.00159827,0.00246517,0.,0.000033
 06,-0.00002917,0.,-0.00004292,0.00004307,0.,-0.00565876,-0.00279931,0.
 ,0.00010862,-0.00006408,0.,0.00999076,0.01225852,0.,0.00051374,-0.0007
 8201,0.,-0.04568637,0.00133684,0.,-0.00338394,-0.00126104,0.,-0.351976
 56,0.17289706,0.,0.00248876,-0.00254247,0.,0.75275048,-0.00209963,-0.0
 0256363,0.,-0.00004853,-0.00000518,0.,0.00001051,-0.00009409,0.,0.0058
 3181,0.00182429,0.,0.00015204,0.00009609,0.,-0.00983723,-0.00787012,0.
 ,-0.00031937,-0.00047694,0.,0.01598861,0.02592939,0.,-0.00349666,0.000
 87926,0.,0.12676479,-0.21705427,0.,0.03060292,-0.01888797,0.,-0.070956
 08,0.65214479,0.,0.,-0.00005016,0.,0.,-0.00007465,0.,0.,0.00012641,0.,
 0.,-0.00043272,0.,0.,0.00005079,0.,0.,-0.00014052,0.,0.,0.00010875,0.,
 0.,0.00417451,0.,0.,0.00264424,0.,0.,-0.05245601,0.,0.,0.00426202,0.,0
 .,0.12891426,-0.00008864,0.00000252,0.,0.00000560,-0.00000928,0.,-0.00
 002690,-0.00002327,0.,0.00000505,-0.00018623,0.,0.00003350,0.00002002,
 0.,0.00007547,0.00017875,0.,-0.00002987,-0.00000251,0.,-0.00050839,0.0
 0385895,0.,-0.00128614,-0.00015875,0.,-0.02434086,-0.01459657,0.,0.000
 54724,0.00034598,0.,-0.25166743,-0.12078036,0.,0.27163409,0.00006210,-
 0.00007747,0.,0.00000766,0.00002340,0.,0.00000065,0.00002069,0.,0.0000
 8323,0.00037728,0.,-0.00006955,0.00000976,0.,0.00013684,-0.00080909,0.
 ,0.00012529,0.00022619,0.,0.00210948,-0.00057499,0.,0.00062076,-0.0000
 1382,0.,0.01821686,0.00892644,0.,0.00142293,0.00144737,0.,-0.12315970,
 -0.13217728,0.,0.12737889,0.14422809,0.,0.,0.00001108,0.,0.,-0.0000096
 6,0.,0.,0.00015225,0.,0.,-0.00129276,0.,0.,0.00002280,0.,0.,-0.0002400
 2,0.,0.,0.00065645,0.,0.,0.00991203,0.,0.,-0.00001770,0.,0.,0.00441380
 ,0.,0.,-0.00703867,0.,0.,-0.03686404,0.,0.,0.02495588,-0.00079530,-0.0
 0049079,0.,-0.00003077,-0.00006992,0.,0.00001869,-0.00007017,0.,0.0016
 9990,0.00001974,0.,0.00009118,-0.00003084,0.,-0.00174981,-0.00300941,0
 .,-0.00313781,0.00057480,0.,0.00801088,0.00322703,0.,0.00014837,-0.000
 26059,0.,-0.00953811,0.03775578,0.,-0.00399337,0.00314869,0.,-0.098736
 47,-0.00503831,0.,0.00271150,-0.02879869,0.,0.81777615,0.00029419,0.00
 140096,0.,-0.00002807,-0.00008524,0.,0.00000488,-0.00003716,0.,-0.0022
 0518,-0.00296506,0.,0.00033641,-0.00003687,0.,0.00507411,0.00852679,0.
 ,0.00020891,-0.00177110,0.,-0.01197067,-0.00698183,0.,-0.00062209,-0.0
 0039189,0.,0.03267669,-0.02245581,0.,0.00136398,0.00141081,0.,-0.00867
 275,-0.25885591,0.,0.00170581,-0.01804459,0.,-0.03903940,0.63703112,0.
 ,0.,0.00007647,0.,0.,0.00002928,0.,0.,-0.00015750,0.,0.,0.00057190,0.,
 0.,-0.00004131,0.,0.,0.00041334,0.,0.,-0.00006850,0.,0.,-0.00569414,0.
 ,0.,-0.00020741,0.,0.,0.00436129,0.,0.,0.01184754,0.,0.,-0.06382712,0.
 ,0.,0.00353697,0.,0.,0.12937467,0.00007190,0.00001419,0.,-0.00001653,-
 0.00000199,0.,0.00001287,0.00001146,0.,-0.00020511,0.00013437,0.,-0.00
 005239,0.00003402,0.,-0.00339641,0.00033855,0.,-0.00409925,0.00136819,
 0.,0.00076987,-0.00019792,0.,-0.00004214,-0.00006950,0.,-0.00004566,-0
 .00062476,0.,0.00009428,-0.00014478,0.,0.00641923,0.00337488,0.,0.0008
 4151,0.00166944,0.,-0.23839509,-0.13378395,0.,0.26307422,0.00009046,-0
 .00002349,0.,0.00002244,0.00001235,0.,-0.00002692,-0.00001392,0.,0.000
 02806,0.00098691,0.,-0.00026288,-0.00000896,0.,0.00011832,-0.00150852,
 0.,0.00075816,0.00175024,0.,0.00005406,-0.00000225,0.,0.00007411,0.000
 20356,0.,0.00012001,0.00079064,0.,0.00019851,0.00016816,0.,-0.02763859
 ,-0.01401686,0.,0.00119360,-0.00527196,0.,-0.13464461,-0.15743058,0.,0
 .14356752,0.16282520,0.,0.,-0.00006272,0.,0.,0.00005006,0.,0.,0.000016
 19,0.,0.,-0.00015443,0.,0.,0.00000923,0.,0.,-0.00019585,0.,0.,0.001637
 73,0.,0.,0.00016211,0.,0.,0.00004326,0.,0.,-0.00115007,0.,0.,-0.000303
 35,0.,0.,0.00269624,0.,0.,0.00345545,0.,0.,-0.04036612,0.,0.,0.0245302
 2,0.00045470,0.00063778,0.,0.00002346,-0.00000146,0.,-0.00002131,0.000
 01141,0.,-0.00137410,-0.00034853,0.,-0.00010273,-0.00001051,0.,0.00188
 749,0.00198890,0.,0.00015453,0.00036525,0.,-0.00585746,-0.00351900,0.,
 -0.00008552,0.00001146,0.,0.01380053,-0.00738674,0.,0.00065395,-0.0003
 2065,0.,-0.01291852,0.03268823,0.,0.00139256,-0.00169336,0.,-0.4530943
 8,0.14196033,0.,-0.02287754,0.01329258,0.,0.79130176,0.00024420,-0.000
 45164,0.,0.00001191,0.00004965,0.,0.00001103,0.00004823,0.,0.00035543,
 0.00146467,0.,-0.00016360,-0.00004266,0.,-0.00085445,-0.00294324,0.,0.
 00023329,0.00091848,0.,0.00204261,0.00263808,0.,0.00027384,0.00016643,
 0.,-0.00925651,-0.00338150,0.,0.00092917,-0.00091761,0.,0.04446030,-0.
 03093770,0.,0.00174207,0.00115870,0.,0.15732574,-0.18160061,0.,-0.0187
 1058,0.01080485,0.,-0.07553895,0.69282940,0.,0.,0.00003251,0.,0.,-0.00
 001840,0.,0.,-0.00000820,0.,0.,-0.00001086,0.,0.,0.00000458,0.,0.,0.00
 003599,0.,0.,-0.00013583,0.,0.,0.00024314,0.,0.,-0.00008680,0.,0.,0.00
 218642,0.,0.,-0.00013666,0.,0.,0.00642546,0.,0.,-0.00166531,0.,0.,-0.0
 4926203,0.,0.,0.00535593,0.,0.,0.10328544,0.00002131,-0.00003213,0.,0.
 00001031,0.00001292,0.,-0.00001288,0.00000372,0.,0.00001354,0.00023650
 ,0.,-0.00006626,0.00000701,0.,-0.00002058,-0.00046027,0.,0.00001391,0.
 00027144,0.,0.00005938,-0.00001654,0.,0.00004472,0.00005885,0.,0.00030
 285,0.00028338,0.,-0.00006011,0.00007437,0.,0.00142461,-0.00273120,0.,
 0.00047043,0.00148242,0.,-0.02190517,-0.01835344,0.,-0.00343120,0.0030
 3684,0.,-0.25209990,-0.12649308,0.,0.26977496,-0.00001519,-0.00001870,
 0.,-0.00000016,0.00000281,0.,-0.00000277,0.00000199,0.,0.00002984,-0.0
 0004896,0.,0.00001422,0.00000936,0.,-0.00002536,-0.00002606,0.,-0.0000
 4956,-0.00005919,0.,0.00012345,0.00003798,0.,-0.00002477,0.00000582,0.
 ,-0.00025671,0.00024770,0.,-0.00009209,0.00003679,0.,0.00200543,0.0010
 6502,0.,-0.00062946,0.00010061,0.,0.01128086,0.01126929,0.,0.00273731,
 -0.00039077,0.,-0.13006284,-0.14609830,0.,0.13926468,0.14512863,0.,0.,
 -0.00004481,0.,0.,0.00004953,0.,0.,-0.00002584,0.,0.,0.00027878,0.,0.,
 0.00001154,0.,0.,-0.00023049,0.,0.,-0.00021225,0.,0.,0.00009873,0.,0.,
 0.00002935,0.,0.,0.00005632,0.,0.,0.00038330,0.,0.,-0.00759046,0.,0.,0
 .00027623,0.,0.,0.00493001,0.,0.,0.01137800,0.,0.,-0.03415819,0.,0.,0.
 02229206,-0.00006701,0.00002402,0.,-0.00000094,-0.00001029,0.,-0.00000
 075,-0.00001355,0.,0.00004347,-0.00007539,0.,0.00000250,0.00000257,0.,
 -0.00004968,0.00011112,0.,-0.00000825,-0.00001324,0.,0.00013265,-0.000
 14446,0.,-0.00004047,-0.00001212,0.,0.00093294,0.00151414,0.,-0.000385
 10,0.00030464,0.,-0.00525658,-0.00010643,0.,0.00023127,0.00040474,0.,0
 .00091959,0.03105024,0.,0.00127741,0.00001832,0.,-0.06123753,0.0233875
 7,0.,0.00546006,-0.02429691,0.,0.05804640,0.00006642,0.00000549,0.,-0.
 00000277,0.00000445,0.,0.00000681,0.00000984,0.,-0.00007231,0.00001657
 ,0.,0.00000910,-0.00000465,0.,0.00008911,-0.00000550,0.,-0.00000877,-0
 .00001578,0.,-0.00008707,-0.00003262,0.,0.00005487,0.00000061,0.,-0.00
 016506,-0.00045214,0.,0.00017178,-0.00012809,0.,0.00243880,0.00100114,
 0.,-0.00004016,0.00045067,0.,-0.00187992,-0.00898232,0.,0.00028354,0.0
 0112538,0.,0.02792609,-0.34370522,0.,0.00335453,-0.01126401,0.,-0.0321
 4497,0.36197619,0.,0.,0.00000017,0.,0.,-0.00002604,0.,0.,0.00003581,0.
 ,0.,-0.00018881,0.,0.,-0.00000065,0.,0.,0.00014968,0.,0.,0.00009096,0.
 ,0.,0.00013084,0.,0.,0.00000597,0.,0.,0.00007579,0.,0.,-0.00140419,0.,
 0.,0.01203299,0.,0.,-0.00026478,0.,0.,0.00448265,0.,0.,-0.00710189,0.,
 0.,-0.03208720,0.,0.,0.00247819,0.,0.,0.02159051\\-0.00000834,0.000050
 09,0.,-0.00002885,-0.00000579,0.,0.00004242,-0.00001216,0.,0.00007215,
 0.00001909,0.,-0.00002350,-0.00001684,0.,-0.00014692,-0.00005694,0.,0.
 00003567,-0.00000258,0.,0.00008655,0.00003790,0.,-0.00007134,0.0000176
 0,0.,-0.00011569,0.00010325,0.,-0.00000596,-0.00003548,0.,0.00027868,0
 .00011029,0.,-0.00009063,-0.00005856,0.,-0.00022274,0.00003319,0.,0.00
 008943,-0.00008431,0.,0.00005027,-0.00008687,0.,0.00002084,-0.00003858
 ,0.,0.00003796,0.00002671,0.\\\@


 "A LITTLE BIT GOES A LONG WAY"
 R.S. MULLIKEN AS QUOTED BY K. RUEDENBERG
 Job cpu time:  0 days  0 hours  4 minutes  7.0 seconds.
 File lengths (MBytes):  RWF=     49 Int=      0 D2E=      0 Chk=      3 Scr=      1
 Normal termination of Gaussian 09 at Tue Mar  2 16:38:13 2021.
0132198,0.
 ,0.,0.01182154,0.,0.,-0.00021989,0.,0.,0.00573581,0.,0.,-0.00739367,0.
 ,0.,-0.03481613,0.,0.,0.00331602,0.,0.,0.02262889\\-0.00000995,0.00005
 192,0.,-0.00002354,-0.00001016,0.,0.00003876,-0.00001072,0.,0.00008426
 ,0.00000733,0.,-0.00002871,-0.00000864,0.,-0.00013676,-0.00002006,0.,0
 .00003340,-0.00002278,0.,0.00007374,0.00002183,0.,-0.00007522,0.000029
 02,0.,-0.00005922,0.00009552,0.,-0.00003194,-0.00002399,0.,0.00024122,
 0.00011750,0.,-0.00010248,-0.00005594,0.,-0.00016396,-0.00000505,0.,0.
 00006505,-0.00006749,0.,0.00005186,-0.00009253,0.,0.00001130,-0.000028
 02,0.,0.00003219,0.00002225,0.\\\@


 THE BEST WAY TO CONVINCE A FOOL THAT HE IS WRONG 
 IS TO LET HIM HAVE HIS OWN WAY.

                                         JOSH BILLINGS
 Job cpu time:  0 days  0 hours  1 minutes 33.3 seconds.
 File lengths (MBytes):  RWF=     27 Int=      0 D2E=      0 Chk=      3 Scr=      1
 Normal termination of Gaussian 09 at Tue Mar  2 16:24:51 2021.
