 Entering Gaussian System, Link 0=g09
 Input=4.com
 Output=4.log
 Initial command:
 /home/student/g09/l1.exe /home/student/singh/octa/Gau-23563.inp -scrdir=/home/student/singh/octa/
 Entering Link 1 = /home/student/g09/l1.exe PID=     23565.
  
 Copyright (c) 1988,1990,1992,1993,1995,1998,2003,2009,2011,
            Gaussian, Inc.  All Rights Reserved.
  
 This is part of the Gaussian(R) 09 program.  It is based on
 the Gaussian(R) 03 system (copyright 2003, Gaussian, Inc.),
 the Gaussian(R) 98 system (copyright 1998, Gaussian, Inc.),
 the Gaussian(R) 94 system (copyright 1995, Gaussian, Inc.),
 the Gaussian 92(TM) system (copyright 1992, Gaussian, Inc.),
 the Gaussian 90(TM) system (copyright 1990, Gaussian, Inc.),
 the Gaussian 88(TM) system (copyright 1988, Gaussian, Inc.),
 the Gaussian 86(TM) system (copyright 1986, Carnegie Mellon
 University), and the Gaussian 82(TM) system (copyright 1983,
 Carnegie Mellon University). Gaussian is a federally registered
 trademark of Gaussian, Inc.
  
 This software contains proprietary and confidential information,
 including trade secrets, belonging to Gaussian, Inc.
  
 This software is provided under written license and may be
 used, copied, transmitted, or stored only in accord with that
 written license.
  
 The following legend is applicable only to US Government
 contracts under FAR:
  
                    RESTRICTED RIGHTS LEGEND
  
 Use, reproduction and disclosure by the US Government is
 subject to restrictions as set forth in subparagraphs (a)
 and (c) of the Commercial Computer Software - Restricted
 Rights clause in FAR 52.227-19.
  
 Gaussian, Inc.
 340 Quinnipiac St., Bldg. 40, Wallingford CT 06492
  
  
 ---------------------------------------------------------------
 Warning -- This program may not be used in any manner that
 competes with the business of Gaussian, Inc. or will provide
 assistance to any competitor of Gaussian, Inc.  The licensee
 of this program is prohibited from giving any competitor of
 Gaussian, Inc. access to this program.  By using this program,
 the user acknowledges that Gaussian, Inc. is engaged in the
 business of creating and licensing software in the field of
 computational chemistry and represents and warrants to the
 licensee that it is not a competitor of Gaussian, Inc. and that
 it will not use this program in any manner prohibited above.
 ---------------------------------------------------------------
  

 Cite this work as:
 Gaussian 09, Revision C.01,
 M. J. Frisch, G. W. Trucks, H. B. Schlegel, G. E. Scuseria, 
 M. A. Robb, J. R. Cheeseman, G. Scalmani, V. Barone, B. Mennucci, 
 G. A. Petersson, H. Nakatsuji, M. Caricato, X. Li, H. P. Hratchian, 
 A. F. Izmaylov, J. Bloino, G. Zheng, J. L. Sonnenberg, M. Hada, 
 M. Ehara, K. Toyota, R. Fukuda, J. Hasegawa, M. Ishida, T. Nakajima, 
 Y. Honda, O. Kitao, H. Nakai, T. Vreven, J. A. Montgomery, Jr., 
 J. E. Peralta, F. Ogliaro, M. Bearpark, J. J. Heyd, E. Brothers, 
 K. N. Kudin, V. N. Staroverov, T. Keith, R. Kobayashi, J. Normand, 
 K. Raghavachari, A. Rendell, J. C. Burant, S. S. Iyengar, J. Tomasi, 
 M. Cossi, N. Rega, J. M. Millam, M. Klene, J. E. Knox, J. B. Cross, 
 V. Bakken, C. Adamo, J. Jaramillo, R. Gomperts, R. E. Stratmann, 
 O. Yazyev, A. J. Austin, R. Cammi, C. Pomelli, J. W. Ochterski, 
 R. L. Martin, K. Morokuma, V. G. Zakrzewski, G. A. Voth, 
 P. Salvador, J. J. Dannenberg, S. Dapprich, A. D. Daniels, 
 O. Farkas, J. B. Foresman, J. V. Ortiz, J. Cioslowski, 
 and D. J. Fox, Gaussian, Inc., Wallingford CT, 2010.
 
 ******************************************
 Gaussian 09:  EM64L-G09RevC.01 23-Sep-2011
                 2-Mar-2021 
 ******************************************
 %chk=4.chk
 -----------------------------------------
 # opt freq b3lyp/6-31g* geom=connectivity
 -----------------------------------------
 1/14=-1,18=20,19=15,26=3,38=1,57=2/1,3;
 2/9=110,12=2,17=6,18=5,40=1/2;
 3/5=1,6=6,7=1,11=2,16=1,25=1,30=1,71=1,74=-5/1,2,3;
 4//1;
 5/5=2,38=5/2;
 6/7=2,8=2,9=2,10=2,28=1/1;
 7//1,2,3,16;
 1/14=-1,18=20,19=15/3(2);
 2/9=110/2;
 99//99;
 2/9=110/2;
 3/5=1,6=6,7=1,11=2,16=1,25=1,30=1,71=1,74=-5/1,2,3;
 4/5=5,16=3/1;
 5/5=2,38=5/2;
 7//1,2,3,16;
 1/14=-1,18=20,19=15/3(-5);
 2/9=110/2;
 6/7=2,8=2,9=2,10=2,19=2,28=1/1;
 99/9=1/99;
 -------------------
 Title Card Required
 -------------------
 Charge =  0 Multiplicity = 1
 Symbolic Z-Matrix:
 C                    -6.20101   2.00094   0. 
 H                    -6.78348   1.10337   0. 
 H                    -6.68898   2.95319   0. 
 C                    -4.84737   1.93582   0. 
 H                    -4.26491   2.83339   0. 
 C                    -4.14506   0.56529   0. 
 H                    -4.72752  -0.33228   0. 
 C                    -3.06739  -0.25642   0. 
 H                    -3.19962  -1.31822   0. 
 C                    -1.52742  -0.26557   0. 
 H                    -0.99978  -1.19642   0. 
 C                    -0.83823   0.9013    0. 
 H                     0.03555   0.28373   0. 
 C                    -0.69423   2.43456   0. 
 H                     0.37519   2.46979   0. 
 C                    -1.40782   3.58666   0. 
 H                    -2.47743   3.55779  0. 
 H                    -0.89989   4.52842   0. 
 

 GradGradGradGradGradGradGradGradGradGradGradGradGradGradGradGradGradGrad
 Berny optimization.
 Initialization pass.
                           ----------------------------
                           !    Initial Parameters    !
                           ! (Angstroms and Degrees)  !
 --------------------------                            --------------------------
 ! Name  Definition              Value          Derivative Info.                !
 --------------------------------------------------------------------------------
 ! R1    R(1,2)                  1.07           estimate D2E/DX2                !
 ! R2    R(1,3)                  1.07           estimate D2E/DX2                !
 ! R3    R(1,4)                  1.3552         estimate D2E/DX2                !
 ! R4    R(4,5)                  1.07           estimate D2E/DX2                !
 ! R5    R(4,6)                  1.54           estimate D2E/DX2                !
 ! R6    R(6,7)                  1.07           estimate D2E/DX2                !
 ! R7    R(6,8)                  1.3552         estimate D2E/DX2                !
 ! R8    R(8,9)                  1.07           estimate D2E/DX2                !
 ! R9    R(8,10)                 1.54           estimate D2E/DX2                !
 ! R10   R(10,11)                1.07           estimate D2E/DX2                !
 ! R11   R(10,12)                1.3552         estimate D2E/DX2                !
 ! R12   R(12,13)                1.07           estimate D2E/DX2                !
 ! R13   R(12,14)                1.54           estimate D2E/DX2                !
 ! R14   R(14,15)                1.07           estimate D2E/DX2                !
 ! R15   R(14,16)                1.3552         estimate D2E/DX2                !
 ! R16   R(16,17)                1.07           estimate D2E/DX2                !
 ! R17   R(16,18)                1.07           estimate D2E/DX2                !
 ! A1    A(2,1,3)              119.8865         estimate D2E/DX2                !
 ! A2    A(2,1,4)              120.2269         estimate D2E/DX2                !
 ! A3    A(3,1,4)              119.8865         estimate D2E/DX2                !
 ! A4    A(1,4,5)              120.2269         estimate D2E/DX2                !
 ! A5    A(1,4,6)              119.8865         estimate D2E/DX2                !
 ! A6    A(5,4,6)              119.8865         estimate D2E/DX2                !
 ! A7    A(4,6,7)              119.8865         estimate D2E/DX2                !
 ! A8    A(4,6,8)              154.4577         estimate D2E/DX2                !
 ! A9    A(7,6,8)               85.6557         estimate D2E/DX2                !
 ! A10   A(6,8,9)              120.2269         estimate D2E/DX2                !
 ! A11   A(6,8,10)             143.0152         estimate D2E/DX2                !
 ! A12   A(9,8,10)              96.7579         estimate D2E/DX2                !
 ! A13   A(8,10,11)            119.8865         estimate D2E/DX2                !
 ! A14   A(8,10,12)            120.2269         estimate D2E/DX2                !
 ! A15   A(11,10,12)           119.8865         estimate D2E/DX2                !
 ! A16   A(10,12,13)            85.3153         estimate D2E/DX2                !
 ! A17   A(10,12,14)           154.7982         estimate D2E/DX2                !
 ! A18   A(13,12,14)           119.8865         estimate D2E/DX2                !
 ! A19   A(12,14,15)            97.2523         estimate D2E/DX2                !
 ! A20   A(12,14,16)           142.8611         estimate D2E/DX2                !
 ! A21   A(15,14,16)           119.8865         estimate D2E/DX2                !
 ! A22   A(14,16,17)           120.2269         estimate D2E/DX2                !
 ! A23   A(14,16,18)           119.8865         estimate D2E/DX2                !
 ! A24   A(17,16,18)           119.8865         estimate D2E/DX2                !
 ! D1    D(2,1,4,5)            180.0            estimate D2E/DX2                !
 ! D2    D(2,1,4,6)              0.0            estimate D2E/DX2                !
 ! D3    D(3,1,4,5)              0.0            estimate D2E/DX2                !
 ! D4    D(3,1,4,6)            180.0            estimate D2E/DX2                !
 ! D5    D(1,4,6,7)              0.0            estimate D2E/DX2                !
 ! D6    D(1,4,6,8)            180.0            estimate D2E/DX2                !
 ! D7    D(5,4,6,7)            180.0            estimate D2E/DX2                !
 ! D8    D(5,4,6,8)              0.0            estimate D2E/DX2                !
 ! D9    D(4,6,8,9)            180.0            estimate D2E/DX2                !
 ! D10   D(4,6,8,10)             0.0            estimate D2E/DX2                !
 ! D11   D(7,6,8,9)              0.0            estimate D2E/DX2                !
 ! D12   D(7,6,8,10)           180.0            estimate D2E/DX2                !
 ! D13   D(6,8,10,11)          180.0            estimate D2E/DX2                !
 ! D14   D(6,8,10,12)            0.0            estimate D2E/DX2                !
 ! D15   D(9,8,10,11)            0.0            estimate D2E/DX2                !
 ! D16   D(9,8,10,12)          180.0            estimate D2E/DX2                !
 ! D17   D(8,10,12,13)         180.0            estimate D2E/DX2                !
 ! D18   D(8,10,12,14)           0.0            estimate D2E/DX2                !
 ! D19   D(11,10,12,13)          0.0            estimate D2E/DX2                !
 ! D20   D(11,10,12,14)        180.0            estimate D2E/DX2                !
 ! D21   D(10,12,14,15)        180.0            estimate D2E/DX2                !
 ! D22   D(10,12,14,16)          0.0            estimate D2E/DX2                !
 ! D23   D(13,12,14,15)          0.0            estimate D2E/DX2                !
 ! D24   D(13,12,14,16)        180.0            estimate D2E/DX2                !
 ! D25   D(12,14,16,17)          0.0            estimate D2E/DX2                !
 ! D26   D(12,14,16,18)        180.0            estimate D2E/DX2                !
 ! D27   D(15,14,16,17)        180.0            estimate D2E/DX2                !
 ! D28   D(15,14,16,18)          0.0            estimate D2E/DX2                !
 --------------------------------------------------------------------------------
 Trust Radius=3.00D-01 FncErr=1.00D-07 GrdErr=1.00D-06
 Number of steps in this run=     79 maximum allowed number of steps=    108.
 GradGradGradGradGradGradGradGradGradGradGradGradGradGradGradGradGradGrad

                          Input orientation:                          
 ---------------------------------------------------------------------
 Center     Atomic      Atomic             Coordinates (Angstroms)
 Number     Number       Type             X           Y           Z
 ---------------------------------------------------------------------
      1          6           0       -6.201009    2.000939    0.000000
      2          1           0       -6.783475    1.103368    0.000000
      3          1           0       -6.688982    2.953190    0.000000
      4          6           0       -4.847374    1.935823    0.000000
      5          1           0       -4.264908    2.833394    0.000000
      6          6           0       -4.145058    0.565293    0.000000
      7          1           0       -4.727524   -0.332277    0.000000
      8          6           0       -3.067395   -0.256417    0.000000
      9          1           0       -3.199617   -1.318216    0.000000
     10          6           0       -1.527422   -0.265567    0.000000
     11          1           0       -0.999780   -1.196423    0.000000
     12          6           0       -0.838234    0.901303    0.000000
     13          1           0        0.035551    0.283726    0.000000
     14          6           0       -0.694229    2.434556    0.000000
     15          1           0        0.375191    2.469785    0.000000
     16          6           0       -1.407823    3.586663    0.000000
     17          1           0       -2.477434    3.557787    0.000000
     18          1           0       -0.899889    4.528418    0.000000
 ---------------------------------------------------------------------
                    Distance matrix (angstroms):
                    1          2          3          4          5
     1  C    0.000000
     2  H    1.070000   0.000000
     3  H    1.070000   1.852234   0.000000
     4  C    1.355200   2.107479   2.103938   0.000000
     5  H    2.107479   3.055514   2.427032   1.070000   0.000000
     6  C    2.507591   2.692725   3.489068   1.540000   2.271265
     7  H    2.759539   2.507591   3.826436   2.271265   3.199295
     8  C    3.862020   3.957053   4.839160   2.823871   3.313755
     9  H    4.474946   4.325287   5.515485   3.647448   4.286107
    10  C    5.194176   5.431397   6.082935   3.983491   4.134899
    11  H    6.105400   6.224161   7.041755   4.961346   5.186569
    12  C    5.474355   5.948674   6.200121   4.140464   3.933837
    13  H    6.468655   6.868109   7.235010   5.154840   4.999475
    14  C    5.523825   6.233055   6.017146   4.182983   3.592885
    15  H    6.592892   7.287907   7.080693   5.249791   4.654324
    16  C    5.048678   5.921519   5.319015   3.815204   2.954716
    17  H    4.035937   4.956427   4.254724   2.871826   1.928681
    18  H    5.872821   6.807904   5.999578   4.722731   3.767819
                    6          7          8          9         10
     6  C    0.000000
     7  H    1.070000   0.000000
     8  C    1.355200   1.661862   0.000000
     9  H    2.107479   1.818399   1.070000   0.000000
    10  C    2.746334   3.200798   1.540000   1.975932   0.000000
    11  H    3.605055   3.826595   2.271265   2.203207   1.070000
    12  C    3.323852   4.080233   2.511867   3.240741   1.355200
    13  H    4.190080   4.802743   3.149607   3.610060   1.656686
    14  C    3.924584   4.891097   3.587931   4.512235   2.825752
    15  H    4.905073   5.821448   4.391307   5.208475   3.331979
    16  C    4.076901   5.136001   4.186101   5.221912   3.854086
    17  H    3.425783   4.493942   3.859561   4.929195   3.939614
    18  H    5.122253   6.186853   5.252878   6.282665   4.834882
                   11         12         13         14         15
    11  H    0.000000
    12  C    2.103938   0.000000
    13  H    1.806309   1.070000   0.000000
    14  C    3.643812   1.540000   2.271265   0.000000
    15  H    3.915562   1.983062   2.212286   1.070000   0.000000
    16  C    4.800459   2.745102   3.604541   1.355200   2.103938
    17  H    4.978552   3.121520   4.127295   2.107479   3.053066
    18  H    5.725712   3.627638   4.346545   2.103938   2.421527
                   16         17         18
    16  C    0.000000
    17  H    1.070000   0.000000
    18  H    1.070000   1.852234   0.000000
 Stoichiometry    C8H10
 Framework group  CS[SG(C8H10)]
 Deg. of freedom    33
 Full point group                 CS      NOp   2
 Largest Abelian subgroup         CS      NOp   2
 Largest concise Abelian subgroup C1      NOp   1
                         Standard orientation:                         
 ---------------------------------------------------------------------
 Center     Atomic      Atomic             Coordinates (Angstroms)
 Number     Number       Type             X           Y           Z
 ---------------------------------------------------------------------
      1          6           0       -2.316447    2.482419    0.000000
      2          1           0       -1.873389    3.456379    0.000000
      3          1           0       -3.381653    2.381247    0.000000
      4          6           0       -1.533101    1.376555    0.000000
      5          1           0       -1.976158    0.402594    0.000000
      6          6           0        0.000000    1.522166    0.000000
      7          1           0        0.443058    2.496127    0.000000
      8          6           0        1.272525    1.056069    0.000000
      9          1           0        2.096303    1.738923    0.000000
     10          6           0        2.108980   -0.236968    0.000000
     11          1           0        3.177502   -0.180745    0.000000
     12          6           0        1.496377   -1.445804    0.000000
     13          1           0        2.487130   -1.849919    0.000000
     14          6           0        0.281577   -2.392304    0.000000
     15          1           0        0.827397   -3.312619    0.000000
     16          6           0       -1.073496   -2.410865    0.000000
     17          1           0       -1.624774   -1.493808    0.000000
     18          1           0       -1.593904   -3.345785    0.000000
 ---------------------------------------------------------------------
 Rotational constants (GHZ):      2.6031121      1.2142481      0.8280130
 Standard basis: 6-31G(d) (6D, 7F)
 There are   108 symmetry adapted basis functions of A'  symmetry.
 There are    32 symmetry adapted basis functions of A"  symmetry.
 Integral buffers will be    131072 words long.
 Raffenetti 2 integral format.
 Two-electron integral symmetry is turned on.
   140 basis functions,   264 primitive gaussians,   140 cartesian basis functions
    29 alpha electrons       29 beta electrons
       nuclear repulsion energy       305.5669367053 Hartrees.
 NAtoms=   18 NActive=   18 NUniq=   18 SFac= 1.00D+00 NAtFMM=   60 NAOKFM=F Big=F
 One-electron integrals computed using PRISM.
 NBasis=   140 RedAO= T  NBF=   108    32
 NBsUse=   140 1.00D-06 NBFU=   108    32
 Harris functional with IExCor=  402 diagonalized for initial guess.
 ExpMin= 1.61D-01 ExpMax= 3.05D+03 ExpMxC= 4.57D+02 IAcc=1 IRadAn=         1 AccDes= 0.00D+00
 HarFok:  IExCor=  402 AccDes= 0.00D+00 IRadAn=         1 IDoV= 1
 ScaDFX=  1.000000  1.000000  1.000000  1.000000
 FoFCou: FMM=F IPFlag=           0 FMFlag=      100000 FMFlg1=           0
         NFxFlg=           0 DoJE=T BraDBF=F KetDBF=T FulRan=T
         Omega=  0.000000  0.000000  1.000000  0.000000  0.000000 ICntrl=     500 IOpCl=  0
         NMat0=    1 NMatS0=    1 NMatT0=    0 NMatD0=    1 NMtDS0=    0 NMtDT0=    0
         I1Cent=           4 NGrid=           0.
 Petite list used in FoFCou.
 Initial guess orbital symmetries:
       Occupied  (A') (A') (A') (A') (A') (A') (A') (A') (A') (A')
                 (A') (A') (A') (A') (A') (A') (A') (A') (A') (A')
                 (A') (A') (A') (A') (A") (A") (A') (A") (A")
       Virtual   (A") (A") (A") (A") (A') (A') (A') (A') (A') (A')
                 (A') (A') (A') (A') (A') (A') (A') (A') (A') (A')
                 (A') (A') (A") (A') (A') (A") (A") (A') (A") (A')
                 (A') (A') (A") (A') (A") (A') (A') (A") (A') (A")
                 (A') (A') (A') (A') (A') (A') (A') (A') (A') (A')
                 (A') (A') (A') (A') (A') (A') (A') (A') (A") (A')
                 (A') (A") (A') (A") (A") (A') (A") (A') (A") (A")
                 (A') (A") (A") (A') (A') (A') (A") (A') (A") (A')
                 (A') (A') (A') (A") (A') (A') (A") (A') (A') (A')
                 (A") (A') (A') (A") (A') (A') (A') (A") (A') (A')
                 (A') (A') (A') (A') (A') (A') (A') (A') (A') (A')
                 (A')
 The electronic state of the initial guess is 1-A'.
 Requested convergence on RMS density matrix=1.00D-08 within 128 cycles.
 Requested convergence on MAX density matrix=1.00D-06.
 Requested convergence on             energy=1.00D-06.
 No special actions if energy rises.
 Integral accuracy reduced to 1.0D-05 until final iterations.
 Initial convergence to 1.0D-05 achieved.  Increase integral accuracy.
 SCF Done:  E(RB3LYP) =  -310.656010446     A.U. after   14 cycles
             Convg  =    0.6178D-08             -V/T =  2.0103

 **********************************************************************

            Population analysis using the SCF density.

 **********************************************************************

 Orbital symmetries:
       Occupied  (A') (A') (A') (A') (A') (A') (A') (A') (A') (A')
                 (A') (A') (A') (A') (A') (A') (A') (A') (A') (A')
                 (A') (A') (A') (A') (A") (A") (A") (A') (A")
       Virtual   (A") (A") (A") (A') (A') (A') (A') (A") (A') (A')
                 (A') (A') (A') (A') (A') (A') (A') (A') (A') (A')
                 (A') (A') (A") (A') (A") (A') (A") (A') (A") (A')
                 (A') (A') (A") (A") (A') (A') (A") (A') (A") (A')
                 (A') (A') (A') (A') (A') (A') (A') (A') (A') (A')
                 (A') (A') (A') (A') (A') (A') (A') (A') (A') (A")
                 (A') (A') (A") (A") (A') (A") (A") (A') (A") (A")
                 (A') (A") (A") (A') (A') (A') (A") (A') (A") (A')
                 (A') (A') (A') (A") (A') (A') (A") (A') (A') (A')
                 (A") (A') (A') (A") (A') (A') (A") (A') (A') (A')
                 (A') (A') (A') (A') (A') (A') (A') (A') (A') (A')
                 (A')
 The electronic state is 1-A'.
 Alpha  occ. eigenvalues --  -10.21246 -10.21105 -10.19485 -10.19460 -10.19458
 Alpha  occ. eigenvalues --  -10.19166 -10.19119 -10.19053  -0.80918  -0.78647
 Alpha  occ. eigenvalues --   -0.76011  -0.73249  -0.63479  -0.60299  -0.56171
 Alpha  occ. eigenvalues --   -0.50700  -0.48216  -0.46080  -0.45500  -0.43739
 Alpha  occ. eigenvalues --   -0.39841  -0.38525  -0.35927  -0.35010  -0.32819
 Alpha  occ. eigenvalues --   -0.30205  -0.26291  -0.26222  -0.21002
 Alpha virt. eigenvalues --   -0.05712  -0.00383   0.07205   0.07477   0.10229
 Alpha virt. eigenvalues --    0.11281   0.12906   0.13343   0.13820   0.17054
 Alpha virt. eigenvalues --    0.17703   0.19501   0.21090   0.25219   0.27072
 Alpha virt. eigenvalues --    0.30801   0.32323   0.34096   0.35644   0.39635
 Alpha virt. eigenvalues --    0.46409   0.49499   0.51707   0.53100   0.54799
 Alpha virt. eigenvalues --    0.55763   0.57163   0.59197   0.61167   0.62689
 Alpha virt. eigenvalues --    0.65258   0.65426   0.65735   0.66190   0.67047
 Alpha virt. eigenvalues --    0.67132   0.71707   0.71761   0.76094   0.79303
 Alpha virt. eigenvalues --    0.81382   0.85526   0.86611   0.88942   0.89755
 Alpha virt. eigenvalues --    0.92111   0.92556   0.94442   0.95906   0.98323
 Alpha virt. eigenvalues --    0.99525   1.04242   1.05970   1.07234   1.10415
 Alpha virt. eigenvalues --    1.11527   1.15998   1.17049   1.23562   1.27773
 Alpha virt. eigenvalues --    1.29151   1.33280   1.35943   1.44059   1.46539
 Alpha virt. eigenvalues --    1.48199   1.51019   1.51894   1.57971   1.58666
 Alpha virt. eigenvalues --    1.67052   1.68432   1.72616   1.77371   1.89577
 Alpha virt. eigenvalues --    1.92751   1.94546   1.96326   1.96473   2.00322
 Alpha virt. eigenvalues --    2.00884   2.04813   2.07372   2.09481   2.11006
 Alpha virt. eigenvalues --    2.19663   2.22611   2.24405   2.26419   2.29666
 Alpha virt. eigenvalues --    2.35274   2.44032   2.44904   2.51994   2.52815
 Alpha virt. eigenvalues --    2.61010   2.64530   2.65162   2.72807   2.83498
 Alpha virt. eigenvalues --    2.94882   3.12395   3.25663   4.00438   4.04385
 Alpha virt. eigenvalues --    4.09807   4.17561   4.20810   4.35122   4.56631
 Alpha virt. eigenvalues --    4.72068
          Condensed to atoms (all electrons):
              1          2          3          4          5          6
     1  C    5.042662   0.367713   0.367179   0.624359  -0.056303  -0.011493
     2  H    0.367713   0.544521  -0.037248  -0.032649   0.005613  -0.009569
     3  H    0.367179  -0.037248   0.547704  -0.027135  -0.005085   0.002764
     4  C    0.624359  -0.032649  -0.027135   4.841564   0.355116   0.412434
     5  H   -0.056303   0.005613  -0.005085   0.355116   0.586341  -0.043624
     6  C   -0.011493  -0.009569   0.002764   0.412434  -0.043624   4.923353
     7  H   -0.006998   0.005763   0.000185  -0.053300   0.004335   0.336270
     8  C    0.004566  -0.000427  -0.000155  -0.046480  -0.002301   0.547681
     9  H   -0.000095  -0.000068   0.000001   0.005414  -0.000161  -0.045307
    10  C    0.000009   0.000003   0.000001  -0.003613   0.000549  -0.041091
    11  H    0.000000   0.000000   0.000000   0.000005  -0.000002   0.003609
    12  C    0.000009  -0.000001   0.000000   0.001172  -0.000336  -0.009874
    13  H    0.000000   0.000000   0.000000  -0.000023   0.000009   0.000309
    14  C    0.000005   0.000000   0.000000   0.000211  -0.000173   0.000093
    15  H    0.000000   0.000000   0.000000  -0.000005  -0.000001   0.000007
    16  C    0.000062  -0.000001   0.000003  -0.002496  -0.001247   0.000274
    17  H    0.000015   0.000003  -0.000015  -0.001380   0.010885  -0.000056
    18  H   -0.000001   0.000000   0.000000   0.000041  -0.000019   0.000009
              7          8          9         10         11         12
     1  C   -0.006998   0.004566  -0.000095   0.000009   0.000000   0.000009
     2  H    0.005763  -0.000427  -0.000068   0.000003   0.000000  -0.000001
     3  H    0.000185  -0.000155   0.000001   0.000001   0.000000   0.000000
     4  C   -0.053300  -0.046480   0.005414  -0.003613   0.000005   0.001172
     5  H    0.004335  -0.002301  -0.000161   0.000549  -0.000002  -0.000336
     6  C    0.336270   0.547681  -0.045307  -0.041091   0.003609  -0.009874
     7  H    0.650131  -0.049280  -0.039356   0.013016  -0.000483  -0.000240
     8  C   -0.049280   5.096332   0.357735   0.398504  -0.035145  -0.048048
     9  H   -0.039356   0.357735   0.678216  -0.078383  -0.001070   0.010049
    10  C    0.013016   0.398504  -0.078383   5.159755   0.357886   0.602830
    11  H   -0.000483  -0.035145  -0.001070   0.357886   0.579852  -0.033344
    12  C   -0.000240  -0.048048   0.010049   0.602830  -0.033344   4.886538
    13  H    0.000019   0.015928  -0.001651  -0.096381  -0.027409   0.333493
    14  C   -0.000003  -0.003635   0.000069  -0.056113   0.004230   0.392993
    15  H    0.000000  -0.000107   0.000004   0.008393  -0.000188  -0.038237
    16  C   -0.000005   0.001042  -0.000016  -0.005095  -0.000060  -0.040417
    17  H   -0.000008  -0.000202   0.000006   0.000810  -0.000001  -0.003701
    18  H    0.000000  -0.000007   0.000000  -0.000007   0.000001   0.003445
             13         14         15         16         17         18
     1  C    0.000000   0.000005   0.000000   0.000062   0.000015  -0.000001
     2  H    0.000000   0.000000   0.000000  -0.000001   0.000003   0.000000
     3  H    0.000000   0.000000   0.000000   0.000003  -0.000015   0.000000
     4  C   -0.000023   0.000211  -0.000005  -0.002496  -0.001380   0.000041
     5  H    0.000009  -0.000173  -0.000001  -0.001247   0.010885  -0.000019
     6  C    0.000309   0.000093   0.000007   0.000274  -0.000056   0.000009
     7  H    0.000019  -0.000003   0.000000  -0.000005  -0.000008   0.000000
     8  C    0.015928  -0.003635  -0.000107   0.001042  -0.000202  -0.000007
     9  H   -0.001651   0.000069   0.000004  -0.000016   0.000006   0.000000
    10  C   -0.096381  -0.056113   0.008393  -0.005095   0.000810  -0.000007
    11  H   -0.027409   0.004230  -0.000188  -0.000060  -0.000001   0.000001
    12  C    0.333493   0.392993  -0.038237  -0.040417  -0.003701   0.003445
    13  H    0.698931  -0.030655  -0.013842   0.005022  -0.000135  -0.000100
    14  C   -0.030655   4.810595   0.362037   0.636933  -0.029679  -0.016986
    15  H   -0.013842   0.362037   0.611452  -0.066356   0.005903  -0.008434
    16  C    0.005022   0.636933  -0.066356   5.094708   0.355212   0.366214
    17  H   -0.000135  -0.029679   0.005903   0.355212   0.538866  -0.039235
    18  H   -0.000100  -0.016986  -0.008434   0.366214  -0.039235   0.537075
 Mulliken atomic charges:
              1
     1  C   -0.331688
     2  H    0.156347
     3  H    0.151804
     4  C   -0.073235
     5  H    0.146407
     6  C   -0.065789
     7  H    0.139953
     8  C   -0.236002
     9  H    0.114612
    10  C   -0.261073
    11  H    0.152119
    12  C   -0.056330
    13  H    0.116486
    14  C   -0.069923
    15  H    0.139373
    16  C   -0.343776
    17  H    0.162713
    18  H    0.158002
 Sum of Mulliken atomic charges =   0.00000
 Mulliken charges with hydrogens summed into heavy atoms:
              1
     1  C   -0.023536
     4  C    0.073172
     6  C    0.074164
     8  C   -0.121390
    10  C   -0.108954
    12  C    0.060155
    14  C    0.069450
    16  C   -0.023060
 Sum of Mulliken charges with hydrogens summed into heavy atoms =   0.00000
 Electronic spatial extent (au):  <R**2>=           1370.8810
 Charge=              0.0000 electrons
 Dipole moment (field-independent basis, Debye):
    X=             -0.1625    Y=             -0.1170    Z=              0.0000  Tot=              0.2002
 Quadrupole moment (field-independent basis, Debye-Ang):
   XX=            -40.9092   YY=            -43.7540   ZZ=            -53.9351
   XY=              0.0500   XZ=              0.0000   YZ=              0.0000
 Traceless Quadrupole moment (field-independent basis, Debye-Ang):
   XX=              5.2902   YY=              2.4455   ZZ=             -7.7357
   XY=              0.0500   XZ=              0.0000   YZ=              0.0000
 Octapole moment (field-independent basis, Debye-Ang**2):
  XXX=              3.0127  YYY=             -1.3323  ZZZ=              0.0000  XYY=             -5.0805
  XXY=              1.1851  XXZ=              0.0000  XZZ=              0.2311  YZZ=             -0.0885
  YYZ=              0.0000  XYZ=              0.0000
 Hexadecapole moment (field-independent basis, Debye-Ang**3):
 XXXX=           -688.3227 YYYY=           -977.5643 ZZZZ=            -56.2587 XXXY=            118.4348
 XXXZ=              0.0000 YYYX=            134.8808 YYYZ=              0.0000 ZZZX=              0.0000
 ZZZY=              0.0000 XXYY=           -281.8948 XXZZ=           -152.5273 YYZZ=           -206.5962
 XXYZ=              0.0000 YYXZ=              0.0000 ZZXY=             50.2894
 N-N= 3.055669367053D+02 E-N=-1.329247915238D+03  KE= 3.074874357849D+02
 Symmetry A'   KE= 2.990620513853D+02
 Symmetry A"   KE= 8.425384399624D+00
 Calling FoFJK, ICntrl=      2127 FMM=F ISym2X=1 I1Cent= 0 IOpClX= 0 NMat=1 NMatS=1 NMatT=0.
 ***** Axes restored to original set *****
 -------------------------------------------------------------------
 Center     Atomic                   Forces (Hartrees/Bohr)
 Number     Number              X              Y              Z
 -------------------------------------------------------------------
      1        6           0.033366427   -0.001749313    0.000000000
      2        1          -0.008797602   -0.007701802    0.000000000
      3        1          -0.007570351    0.008505719    0.000000000
      4        6           0.009931021   -0.050134888    0.000000000
      5        1           0.006432740    0.007589698    0.000000000
      6        6          -0.017241922   -0.006794304    0.000000000
      7        1          -0.058944404    0.017274651    0.000000000
      8        6           0.092974682   -0.005635631    0.000000000
      9        1          -0.030208124   -0.015461015    0.000000000
     10        6          -0.107645667    0.086706951    0.000000000
     11        1          -0.001784390   -0.011888180    0.000000000
     12        6           0.017530579   -0.016546462    0.000000000
     13        1           0.057189181    0.042408448    0.000000000
     14        6           0.003337474   -0.039898777    0.000000000
     15        1           0.013892821    0.021258156    0.000000000
     16        6           0.003304052   -0.042660835    0.000000000
     17        1          -0.009671222    0.005748845    0.000000000
     18        1           0.003904705    0.008978742    0.000000000
 -------------------------------------------------------------------
 Cartesian Forces:  Max     0.107645667 RMS     0.029577099

 GradGradGradGradGradGradGradGradGradGradGradGradGradGradGradGradGradGrad
 Berny optimization.
 Internal  Forces:  Max     0.097544354 RMS     0.025824106
 Search for a local minimum.
 Step number   1 out of a maximum of   79
 All quantities printed in internal units (Hartrees-Bohrs-Radians)
 Mixed Optimization -- RFO/linear search
 Second derivative matrix not updated -- first step.
 ITU=  0
     Eigenvalues ---    0.00237   0.00237   0.00237   0.01289   0.01290
     Eigenvalues ---    0.01459   0.01463   0.01623   0.01628   0.02681
     Eigenvalues ---    0.02681   0.02681   0.02681   0.02681   0.02681
     Eigenvalues ---    0.16000   0.16000   0.16000   0.16000   0.16000
     Eigenvalues ---    0.16000   0.16000   0.16000   0.16000   0.16000
     Eigenvalues ---    0.22000   0.22000   0.22000   0.22000   0.22000
     Eigenvalues ---    0.22000   0.28519   0.28519   0.28519   0.37230
     Eigenvalues ---    0.37230   0.37230   0.37230   0.37230   0.37230
     Eigenvalues ---    0.37230   0.37230   0.37230   0.37230   0.53930
     Eigenvalues ---    0.53930   0.53930   0.53930
 RFO step:  Lambda=-1.34446792D-01 EMin= 2.36824052D-03
 Linear search not attempted -- first point.
 Maximum step size (   0.300) exceeded in Quadratic search.
    -- Step size scaled by   0.472
 Iteration  1 RMS(Cart)=  0.14192640 RMS(Int)=  0.00440486
 Iteration  2 RMS(Cart)=  0.00632579 RMS(Int)=  0.00000574
 Iteration  3 RMS(Cart)=  0.00000783 RMS(Int)=  0.00000000
 Iteration  4 RMS(Cart)=  0.00000000 RMS(Int)=  0.00000000
 ClnCor:  largest displacement from symmetrization is 1.31D-12 for atom     1.
 Variable       Old X    -DE/DX   Delta X   Delta X   Delta X     New X
                                 (Linear)    (Quad)   (Total)
    R1        2.02201   0.01125   0.00000   0.01047   0.01047   2.03248
    R2        2.02201   0.01102   0.00000   0.01026   0.01026   2.03227
    R3        2.56096  -0.01702   0.00000  -0.01192  -0.01192   2.54903
    R4        2.02201   0.00987   0.00000   0.00919   0.00919   2.03120
    R5        2.91018  -0.05391   0.00000  -0.06062  -0.06062   2.84956
    R6        2.02201   0.01760   0.00000   0.01638   0.01638   2.03839
    R7        2.56096   0.01404   0.00000   0.00983   0.00983   2.57079
    R8        2.02201   0.01908   0.00000   0.01776   0.01776   2.03977
    R9        2.91018  -0.02026   0.00000  -0.02278  -0.02278   2.88740
   R10        2.02201   0.00946   0.00000   0.00881   0.00881   2.03082
   R11        2.56096   0.02767   0.00000   0.01938   0.01938   2.58034
   R12        2.02201   0.02223   0.00000   0.02069   0.02069   2.04270
   R13        2.91018  -0.04499   0.00000  -0.05059  -0.05059   2.85959
   R14        2.02201   0.01459   0.00000   0.01358   0.01358   2.03559
   R15        2.56096  -0.02245   0.00000  -0.01572  -0.01572   2.54523
   R16        2.02201   0.00951   0.00000   0.00886   0.00886   2.03086
   R17        2.02201   0.00976   0.00000   0.00908   0.00908   2.03109
    A1        2.09241  -0.00407   0.00000  -0.00653  -0.00653   2.08589
    A2        2.09836   0.00237   0.00000   0.00380   0.00380   2.10216
    A3        2.09241   0.00170   0.00000   0.00273   0.00273   2.09514
    A4        2.09836   0.00073   0.00000   0.00132   0.00132   2.09968
    A5        2.09241   0.00109   0.00000   0.00145   0.00145   2.09386
    A6        2.09241  -0.00182   0.00000  -0.00277  -0.00277   2.08964
    A7        2.09241  -0.02913   0.00000  -0.05491  -0.05491   2.03750
    A8        2.69580  -0.06074   0.00000  -0.08085  -0.08085   2.61495
    A9        1.49497   0.08987   0.00000   0.13576   0.13576   1.63074
   A10        2.09836  -0.01328   0.00000  -0.02538  -0.02538   2.07298
   A11        2.49609  -0.03018   0.00000  -0.04018  -0.04018   2.45591
   A12        1.68874   0.04347   0.00000   0.06556   0.06556   1.75430
   A13        2.09241  -0.03281   0.00000  -0.04571  -0.04571   2.04670
   A14        2.09836   0.05063   0.00000   0.06740   0.06740   2.16575
   A15        2.09241  -0.01782   0.00000  -0.02168  -0.02168   2.07073
   A16        1.48903   0.09754   0.00000   0.14839   0.14839   1.63743
   A17        2.70174  -0.05832   0.00000  -0.07764  -0.07764   2.62410
   A18        2.09241  -0.03922   0.00000  -0.07076  -0.07076   2.02166
   A19        1.69737   0.03887   0.00000   0.05744   0.05744   1.75481
   A20        2.49340  -0.03571   0.00000  -0.04753  -0.04753   2.44587
   A21        2.09241  -0.00316   0.00000  -0.00991  -0.00991   2.08250
   A22        2.09836   0.00754   0.00000   0.01209   0.01209   2.11044
   A23        2.09241  -0.00294   0.00000  -0.00471  -0.00471   2.08771
   A24        2.09241  -0.00460   0.00000  -0.00738  -0.00738   2.08504
    D1        3.14159   0.00000   0.00000   0.00000   0.00000   3.14159
    D2        0.00000   0.00000   0.00000   0.00000   0.00000   0.00000
    D3        0.00000   0.00000   0.00000   0.00000   0.00000   0.00000
    D4        3.14159   0.00000   0.00000   0.00000   0.00000   3.14159
    D5        0.00000   0.00000   0.00000   0.00000   0.00000   0.00000
    D6        3.14159   0.00000   0.00000   0.00000   0.00000   3.14159
    D7        3.14159   0.00000   0.00000   0.00000   0.00000   3.14159
    D8        0.00000   0.00000   0.00000   0.00000   0.00000   0.00000
    D9        3.14159   0.00000   0.00000   0.00000   0.00000   3.14159
   D10        0.00000   0.00000   0.00000   0.00000   0.00000   0.00000
   D11        0.00000   0.00000   0.00000   0.00000   0.00000   0.00000
   D12        3.14159   0.00000   0.00000   0.00000   0.00000   3.14159
   D13        3.14159   0.00000   0.00000   0.00000   0.00000   3.14159
   D14        0.00000   0.00000   0.00000   0.00000   0.00000   0.00000
   D15        0.00000   0.00000   0.00000   0.00000   0.00000   0.00000
   D16        3.14159   0.00000   0.00000   0.00000   0.00000   3.14159
   D17        3.14159   0.00000   0.00000   0.00000   0.00000   3.14159
   D18        0.00000   0.00000   0.00000   0.00000   0.00000   0.00000
   D19        0.00000   0.00000   0.00000   0.00000   0.00000   0.00000
   D20        3.14159   0.00000   0.00000   0.00000   0.00000   3.14159
   D21        3.14159   0.00000   0.00000   0.00000   0.00000   3.14159
   D22        0.00000   0.00000   0.00000   0.00000   0.00000   0.00000
   D23        0.00000   0.00000   0.00000   0.00000   0.00000   0.00000
   D24        3.14159   0.00000   0.00000   0.00000   0.00000   3.14159
   D25        0.00000   0.00000   0.00000   0.00000   0.00000   0.00000
   D26        3.14159   0.00000   0.00000   0.00000   0.00000   3.14159
   D27        3.14159   0.00000   0.00000   0.00000   0.00000   3.14159
   D28        0.00000   0.00000   0.00000   0.00000   0.00000   0.00000
         Item               Value     Threshold  Converged?
 Maximum Force            0.097544     0.000450     NO 
 RMS     Force            0.025824     0.000300     NO 
 Maximum Displacement     0.476191     0.001800     NO 
 RMS     Displacement     0.142830     0.001200     NO 
 Predicted change in Energy=-5.451945D-02
 GradGradGradGradGradGradGradGradGradGradGradGradGradGradGradGradGradGrad

                          Input orientation:                          
 ---------------------------------------------------------------------
 Center     Atomic      Atomic             Coordinates (Angstroms)
 Number     Number       Type             X           Y           Z
 ---------------------------------------------------------------------
      1          6           0       -6.064427    2.082210    0.000000
      2          1           0       -6.723735    1.232443    0.000000
      3          1           0       -6.479110    3.074475    0.000000
      4          6           0       -4.726656    1.909366    0.000000
      5          1           0       -4.069870    2.760226    0.000000
      6          6           0       -4.146985    0.517313    0.000000
      7          1           0       -4.849701   -0.301050    0.000000
      8          6           0       -3.063638   -0.305523    0.000000
      9          1           0       -3.222161   -1.373217    0.000000
     10          6           0       -1.536690   -0.250360    0.000000
     11          1           0       -1.010174   -1.187206    0.000000
     12          6           0       -0.812716    0.907365    0.000000
     13          1           0        0.139912    0.396530    0.000000
     14          6           0       -0.750155    2.419302    0.000000
     15          1           0        0.316088    2.572457    0.000000
     16          6           0       -1.569947    3.487957    0.000000
     17          1           0       -2.637569    3.364934    0.000000
     18          1           0       -1.151878    4.478123    0.000000
 ---------------------------------------------------------------------
                    Distance matrix (angstroms):
                    1          2          3          4          5
     1  C    0.000000
     2  H    1.075542   0.000000
     3  H    1.075431   1.858205   0.000000
     4  C    1.348891   2.108684   2.104418   0.000000
     5  H    2.106647   3.062207   2.429648   1.074862   0.000000
     6  C    2.474972   2.674145   3.460908   1.507922   2.244238
     7  H    2.674975   2.421488   3.748219   2.213838   3.159041
     8  C    3.834840   3.970093   4.805188   2.769722   3.226657
     9  H    4.474199   4.364686   5.512684   3.610936   4.219474
    10  C    5.093259   5.394825   5.956681   3.852311   3.934543
    11  H    6.019515   6.204795   6.933339   4.837457   4.994393
    12  C    5.381517   5.919951   6.066662   4.040165   3.747285
    13  H    6.429257   6.914362   7.140227   5.096289   4.827974
    14  C    5.324952   6.090343   5.766296   4.009064   3.337175
    15  H    6.399321   7.166222   6.813716   5.086153   4.389976
    16  C    4.709190   5.625733   4.926545   3.529413   2.603691
    17  H    3.659062   4.609150   3.852506   2.546166   1.554722
    18  H    5.465669   6.448257   5.509049   4.401994   3.386126
                    6          7          8          9         10
     6  C    0.000000
     7  H    1.078669   0.000000
     8  C    1.360404   1.786068   0.000000
     9  H    2.104615   1.948956   1.079398   0.000000
    10  C    2.720839   3.313398   1.527945   2.025245   0.000000
    11  H    3.570010   3.940462   2.234744   2.219794   1.074662
    12  C    3.357006   4.213966   2.556902   3.317601   1.365455
    13  H    4.288598   5.038140   3.279575   3.799413   1.797070
    14  C    3.893072   4.920019   3.574475   4.527031   2.783116
    15  H    4.913515   5.911210   4.439067   5.299768   3.376549
    16  C    3.932664   5.011323   4.076960   5.134280   3.738466
    17  H    3.222930   4.281701   3.695103   4.774078   3.779192
    18  H    4.965750   6.042713   5.151514   6.206791   4.744116
                   11         12         13         14         15
    11  H    0.000000
    12  C    2.103858   0.000000
    13  H    1.957273   1.080950   0.000000
    14  C    3.615869   1.513231   2.209938   0.000000
    15  H    3.986732   2.011648   2.183048   1.077186   0.000000
    16  C    4.708556   2.689397   3.532781   1.346879   2.096490
    17  H    4.834294   3.061002   4.065197   2.111055   3.058122
    18  H    5.667101   3.586829   4.281136   2.097648   2.405512
                   16         17         18
    16  C    0.000000
    17  H    1.074686   0.000000
    18  H    1.074807   1.856466   0.000000
 Stoichiometry    C8H10
 Framework group  CS[SG(C8H10)]
 Deg. of freedom    33
 Full point group                 CS      NOp   2
 Largest Abelian subgroup         CS      NOp   2
 Largest concise Abelian subgroup C1      NOp   1
                         Standard orientation:                         
 ---------------------------------------------------------------------
 Center     Atomic      Atomic             Coordinates (Angstroms)
 Number     Number       Type             X           Y           Z
 ---------------------------------------------------------------------
      1          6           0       -2.363961    2.280672    0.000000
      2          1           0       -2.020232    3.299809    0.000000
      3          1           0       -3.420080    2.077782    0.000000
      4          6           0       -1.480479    1.261375    0.000000
      5          1           0       -1.826513    0.243735    0.000000
      6          6           0        0.000000    1.547750    0.000000
      7          1           0        0.293565    2.585703    0.000000
      8          6           0        1.284523    1.099756    0.000000
      9          1           0        2.086668    1.822020    0.000000
     10          6           0        2.082562   -0.203221    0.000000
     11          1           0        3.154312   -0.124162    0.000000
     12          6           0        1.517939   -1.446470    0.000000
     13          1           0        2.470202   -1.957986    0.000000
     14          6           0        0.292542   -2.334316    0.000000
     15          1           0        0.754266   -3.307527    0.000000
     16          6           0       -1.051158   -2.241830    0.000000
     17          1           0       -1.538756   -1.284125    0.000000
     18          1           0       -1.645231   -3.137535    0.000000
 ---------------------------------------------------------------------
 Rotational constants (GHZ):      2.6440744      1.2971406      0.8702231
 Standard basis: 6-31G(d) (6D, 7F)
 There are   108 symmetry adapted basis functions of A'  symmetry.
 There are    32 symmetry adapted basis functions of A"  symmetry.
 Integral buffers will be    131072 words long.
 Raffenetti 2 integral format.
 Two-electron integral symmetry is turned on.
   140 basis functions,   264 primitive gaussians,   140 cartesian basis functions
    29 alpha electrons       29 beta electrons
       nuclear repulsion energy       309.1577823097 Hartrees.
 NAtoms=   18 NActive=   18 NUniq=   18 SFac= 1.00D+00 NAtFMM=   60 NAOKFM=F Big=F
 One-electron integrals computed using PRISM.
 NBasis=   140 RedAO= T  NBF=   108    32
 NBsUse=   140 1.00D-06 NBFU=   108    32
 Initial guess read from the read-write file.
 B after Tr=     0.000000    0.000000    0.000000
         Rot=    1.000000    0.000000    0.000000    0.000000 Ang=   0.00 deg.
 Initial guess orbital symmetries:
       Occupied  (A') (A') (A') (A') (A') (A') (A') (A') (A') (A')
                 (A') (A') (A') (A') (A') (A') (A') (A') (A') (A')
                 (A') (A') (A') (A') (A") (A") (A") (A') (A")
       Virtual   (A") (A") (A") (A') (A') (A') (A') (A") (A') (A')
                 (A') (A') (A') (A') (A') (A') (A') (A') (A') (A')
                 (A') (A') (A") (A') (A") (A') (A") (A') (A") (A')
                 (A') (A') (A") (A") (A') (A') (A") (A') (A") (A')
                 (A') (A') (A') (A') (A') (A') (A') (A') (A') (A')
                 (A') (A') (A') (A') (A') (A') (A') (A') (A') (A")
                 (A') (A') (A") (A") (A') (A") (A") (A') (A") (A")
                 (A') (A") (A") (A') (A') (A') (A") (A') (A") (A')
                 (A') (A') (A') (A") (A') (A') (A") (A') (A') (A')
                 (A") (A') (A') (A") (A') (A') (A") (A') (A') (A')
                 (A') (A') (A') (A') (A') (A') (A') (A') (A') (A')
                 (A')
 Harris functional with IExCor=  402 diagonalized for initial guess.
 ExpMin= 1.61D-01 ExpMax= 3.05D+03 ExpMxC= 4.57D+02 IAcc=1 IRadAn=         1 AccDes= 0.00D+00
 HarFok:  IExCor=  402 AccDes= 0.00D+00 IRadAn=         1 IDoV= 1
 ScaDFX=  1.000000  1.000000  1.000000  1.000000
 FoFCou: FMM=F IPFlag=           0 FMFlag=      100000 FMFlg1=           0
         NFxFlg=           0 DoJE=T BraDBF=F KetDBF=T FulRan=T
         Omega=  0.000000  0.000000  1.000000  0.000000  0.000000 ICntrl=     500 IOpCl=  0
         NMat0=    1 NMatS0=    1 NMatT0=    0 NMatD0=    1 NMtDS0=    0 NMtDT0=    0
         I1Cent=           4 NGrid=           0.
 Petite list used in FoFCou.
 Requested convergence on RMS density matrix=1.00D-08 within 128 cycles.
 Requested convergence on MAX density matrix=1.00D-06.
 Requested convergence on             energy=1.00D-06.
 No special actions if energy rises.
 Integral accuracy reduced to 1.0D-05 until final iterations.
 Initial convergence to 1.0D-05 achieved.  Increase integral accuracy.
 SCF Done:  E(RB3LYP) =  -310.707079800     A.U. after   13 cycles
             Convg  =    0.3202D-08             -V/T =  2.0105
 Calling FoFJK, ICntrl=      2127 FMM=F ISym2X=1 I1Cent= 0 IOpClX= 0 NMat=1 NMatS=1 NMatT=0.
 ***** Axes restored to original set *****
 -------------------------------------------------------------------
 Center     Atomic                   Forces (Hartrees/Bohr)
 Number     Number              X              Y              Z
 -------------------------------------------------------------------
      1        6           0.020576361   -0.000870902    0.000000000
      2        1          -0.006911143   -0.004000671    0.000000000
      3        1          -0.005559362    0.005352405    0.000000000
      4        6           0.009048548   -0.037885010    0.000000000
      5        1          -0.001601839    0.001807093    0.000000000
      6        6          -0.012128934   -0.015110849    0.000000000
      7        1          -0.036587266    0.016390817    0.000000000
      8        6           0.073287970    0.000335952    0.000000000
      9        1          -0.022227998   -0.006212202    0.000000000
     10        6          -0.080391553    0.071088640    0.000000000
     11        1           0.000013192   -0.007004309    0.000000000
     12        6           0.013939621   -0.024534762    0.000000000
     13        1           0.029744012    0.030575693    0.000000000
     14        6           0.006933395   -0.034551234    0.000000000
     15        1           0.007026476    0.017315859    0.000000000
     16        6           0.003453752   -0.026032983    0.000000000
     17        1           0.000191500    0.006609031    0.000000000
     18        1           0.001193268    0.006727433    0.000000000
 -------------------------------------------------------------------
 Cartesian Forces:  Max     0.080391553 RMS     0.022156647

 GradGradGradGradGradGradGradGradGradGradGradGradGradGradGradGradGradGrad
 Berny optimization.
 Using GEDIIS/GDIIS optimizer.
 Internal  Forces:  Max     0.075918657 RMS     0.017965529
 Search for a local minimum.
 Step number   2 out of a maximum of   79
 All quantities printed in internal units (Hartrees-Bohrs-Radians)
 Mixed Optimization -- RFO/linear search
 Update second derivatives using D2CorX and points    1    2
 DE= -5.11D-02 DEPred=-5.45D-02 R= 9.37D-01
 SS=  1.41D+00  RLast= 3.00D-01 DXNew= 5.0454D-01 9.0000D-01
 Trust test= 9.37D-01 RLast= 3.00D-01 DXMaxT set to 5.05D-01
 ITU=  1  0
 Use linear search instead of GDIIS.
     Eigenvalues ---    0.00237   0.00237   0.00237   0.01324   0.01334
     Eigenvalues ---    0.01466   0.01475   0.01599   0.01605   0.02681
     Eigenvalues ---    0.02681   0.02681   0.02681   0.02681   0.02681
     Eigenvalues ---    0.09356   0.16000   0.16000   0.16000   0.16000
     Eigenvalues ---    0.16000   0.16000   0.16000   0.16000   0.16098
     Eigenvalues ---    0.19260   0.22000   0.22000   0.22000   0.22000
     Eigenvalues ---    0.27479   0.28506   0.28519   0.36323   0.37089
     Eigenvalues ---    0.37230   0.37230   0.37230   0.37230   0.37230
     Eigenvalues ---    0.37230   0.37230   0.37230   0.51606   0.53907
     Eigenvalues ---    0.53930   0.53930   0.68252
 RFO step:  Lambda=-8.37750325D-02 EMin= 2.36824052D-03
 Quartic linear search produced a step of  1.22470.
 Maximum step size (   0.505) exceeded in Quadratic search.
    -- Step size scaled by   0.850
 Iteration  1 RMS(Cart)=  0.32195765 RMS(Int)=  0.02492162
 Iteration  2 RMS(Cart)=  0.11778285 RMS(Int)=  0.00175039
 Iteration  3 RMS(Cart)=  0.00528890 RMS(Int)=  0.00000101
 Iteration  4 RMS(Cart)=  0.00000238 RMS(Int)=  0.00000000
 Iteration  5 RMS(Cart)=  0.00000000 RMS(Int)=  0.00000000
 ClnCor:  largest displacement from symmetrization is 5.12D-09 for atom     5.
 Variable       Old X    -DE/DX   Delta X   Delta X   Delta X     New X
                                 (Linear)    (Quad)   (Total)
    R1        2.03248   0.00740   0.01283   0.01420   0.02702   2.05950
    R2        2.03227   0.00708   0.01257   0.01334   0.02591   2.05818
    R3        2.54903  -0.00798  -0.01460  -0.00867  -0.02327   2.52576
    R4        2.03120   0.00045   0.01125  -0.00875   0.00250   2.03370
    R5        2.84956  -0.03883  -0.07424  -0.09338  -0.16762   2.68194
    R6        2.03839   0.01140   0.02006   0.02162   0.04168   2.08007
    R7        2.57079   0.00566   0.01204   0.00479   0.01683   2.58762
    R8        2.03977   0.00941   0.02175   0.01307   0.03482   2.07459
    R9        2.88740  -0.01643  -0.02790  -0.04308  -0.07098   2.81642
   R10        2.03082   0.00611   0.01079   0.01156   0.02235   2.05317
   R11        2.58034   0.01287   0.02373   0.01383   0.03757   2.61790
   R12        2.04270   0.01176   0.02534   0.01804   0.04339   2.08609
   R13        2.85959  -0.02914  -0.06195  -0.06373  -0.12568   2.73391
   R14        2.03559   0.00942   0.01663   0.01781   0.03444   2.07002
   R15        2.54523  -0.01302  -0.01926  -0.01787  -0.03713   2.50810
   R16        2.03086  -0.00095   0.01085  -0.01330  -0.00246   2.02840
   R17        2.03109   0.00666   0.01112   0.01318   0.02431   2.05540
    A1        2.08589  -0.00411  -0.00800  -0.01690  -0.02490   2.06099
    A2        2.10216   0.00200   0.00466   0.00726   0.01192   2.11407
    A3        2.09514   0.00211   0.00334   0.00964   0.01298   2.10812
    A4        2.09968  -0.00287   0.00162  -0.02044  -0.01881   2.08087
    A5        2.09386   0.00091   0.00178   0.00283   0.00460   2.09846
    A6        2.08964   0.00195  -0.00340   0.01761   0.01421   2.10386
    A7        2.03750  -0.02582  -0.06725  -0.09436  -0.16161   1.87589
    A8        2.61495  -0.02672  -0.09902  -0.02997  -0.12899   2.48596
    A9        1.63074   0.05253   0.16627   0.12433   0.29060   1.92134
   A10        2.07298  -0.02851  -0.03108  -0.13523  -0.16631   1.90666
   A11        2.45591   0.01403  -0.04920   0.12918   0.07998   2.53589
   A12        1.75430   0.01448   0.08029   0.00605   0.08633   1.84064
   A13        2.04670  -0.04143  -0.05598  -0.15819  -0.21417   1.83253
   A14        2.16575   0.07592   0.08254   0.30804   0.39058   2.55633
   A15        2.07073  -0.03448  -0.02656  -0.14985  -0.17640   1.89433
   A16        1.63743   0.04759   0.18174   0.08180   0.26354   1.90096
   A17        2.62410  -0.01142  -0.09508   0.04631  -0.04877   2.57533
   A18        2.02166  -0.03616  -0.08666  -0.12811  -0.21477   1.80689
   A19        1.75481   0.02179   0.07035   0.05133   0.12168   1.87650
   A20        2.44587  -0.01074  -0.05821   0.00861  -0.04961   2.39626
   A21        2.08250  -0.01106  -0.01214  -0.05994  -0.07208   2.01043
   A22        2.11044   0.00783   0.01480   0.03271   0.04751   2.15796
   A23        2.08771  -0.00238  -0.00577  -0.00832  -0.01408   2.07362
   A24        2.08504  -0.00545  -0.00904  -0.02439  -0.03343   2.05161
    D1        3.14159   0.00000   0.00000   0.00000   0.00000   3.14159
    D2        0.00000   0.00000   0.00000   0.00000   0.00000   0.00000
    D3        0.00000   0.00000   0.00000   0.00000   0.00000   0.00000
    D4        3.14159   0.00000   0.00000   0.00000   0.00000   3.14159
    D5        0.00000   0.00000   0.00000   0.00000   0.00000   0.00000
    D6        3.14159   0.00000   0.00000   0.00000   0.00000   3.14159
    D7        3.14159   0.00000   0.00000   0.00000   0.00000   3.14159
    D8        0.00000   0.00000   0.00000   0.00000   0.00000   0.00000
    D9        3.14159   0.00000   0.00000   0.00000   0.00000   3.14159
   D10        0.00000   0.00000   0.00000   0.00000   0.00000   0.00000
   D11        0.00000   0.00000   0.00000   0.00000   0.00000   0.00000
   D12        3.14159   0.00000   0.00000   0.00000   0.00000   3.14159
   D13        3.14159   0.00000   0.00000   0.00000   0.00000   3.14159
   D14        0.00000   0.00000   0.00000   0.00000   0.00000   0.00000
   D15        0.00000   0.00000   0.00000   0.00000   0.00000   0.00000
   D16        3.14159   0.00000   0.00000   0.00000   0.00000   3.14159
   D17        3.14159   0.00000   0.00000   0.00000   0.00000   3.14159
   D18        0.00000   0.00000   0.00000   0.00000   0.00000   0.00000
   D19        0.00000   0.00000   0.00000   0.00000   0.00000   0.00000
   D20        3.14159   0.00000   0.00000   0.00000   0.00000   3.14159
   D21        3.14159   0.00000   0.00000   0.00000   0.00000   3.14159
   D22        0.00000   0.00000   0.00000   0.00000   0.00000   0.00000
   D23        0.00000   0.00000   0.00000   0.00000   0.00000   0.00000
   D24        3.14159   0.00000   0.00000   0.00000   0.00000   3.14159
   D25        0.00000   0.00000   0.00000   0.00000   0.00000   0.00000
   D26        3.14159   0.00000   0.00000   0.00000   0.00000   3.14159
   D27        3.14159   0.00000   0.00000   0.00000   0.00000   3.14159
   D28        0.00000   0.00000   0.00000   0.00000   0.00000   0.00000
         Item               Value     Threshold  Converged?
 Maximum Force            0.075919     0.000450     NO 
 RMS     Force            0.017966     0.000300     NO 
 Maximum Displacement     1.474457     0.001800     NO 
 RMS     Displacement     0.431992     0.001200     NO 
 Predicted change in Energy=-8.546423D-02
 GradGradGradGradGradGradGradGradGradGradGradGradGradGradGradGradGradGrad

                          Input orientation:                          
 ---------------------------------------------------------------------
 Center     Atomic      Atomic             Coordinates (Angstroms)
 Number     Number       Type             X           Y           Z
 ---------------------------------------------------------------------
      1          6           0       -6.405755    1.757867    0.000000
      2          1           0       -7.017231    0.855729    0.000000
      3          1           0       -6.913452    2.721440    0.000000
      4          6           0       -5.071014    1.687865    0.000000
      5          1           0       -4.497112    2.598256    0.000000
      6          6           0       -4.421609    0.425939    0.000000
      7          1           0       -5.203848   -0.348463    0.000000
      8          6           0       -3.182661   -0.157171    0.000000
      9          1           0       -3.296659   -1.249061    0.000000
     10          6           0       -1.712719    0.088823    0.000000
     11          1           0       -1.262218   -0.899869    0.000000
     12          6           0       -0.700102    1.034210    0.000000
     13          1           0        0.274146    0.515118    0.000000
     14          6           0       -0.337328    2.434712    0.000000
     15          1           0        0.756587    2.491908    0.000000
     16          6           0       -0.964146    3.604600    0.000000
     17          1           0       -2.032662    3.706729    0.000000
     18          1           0       -0.371629    4.516712    0.000000
 ---------------------------------------------------------------------
                    Distance matrix (angstroms):
                    1          2          3          4          5
     1  C    0.000000
     2  H    1.089842   0.000000
     3  H    1.089142   1.868595   0.000000
     4  C    1.336575   2.116651   2.112547   0.000000
     5  H    2.085467   3.063886   2.419478   1.076185   0.000000
     6  C    2.389742   2.630964   3.388009   1.419220   2.173629
     7  H    2.425120   2.176795   3.513837   2.040656   3.030285
     8  C    3.749094   3.966093   4.712240   2.640082   3.052893
     9  H    4.325285   4.274669   5.370854   3.431308   4.030252
    10  C    4.980994   5.359664   5.829091   3.719555   3.748346
    11  H    5.789605   6.016834   6.711953   4.604703   4.764600
    12  C    5.751362   6.319650   6.438359   4.419518   4.106522
    13  H    6.794520   7.299328   7.518605   5.472300   5.206185
    14  C    6.106057   6.863985   6.582372   4.792240   4.162998
    15  H    7.199859   7.944138   7.673473   5.882808   5.254776
    16  C    5.746437   6.648017   6.014500   4.532134   3.673497
    17  H    4.787693   5.742310   4.979248   3.647930   2.702263
    18  H    6.634901   7.587280   6.783690   5.485125   4.549734
                    6          7          8          9         10
     6  C    0.000000
     7  H    1.100725   0.000000
     8  C    1.369310   2.030219   0.000000
     9  H    2.017706   2.109134   1.097825   0.000000
    10  C    2.729787   3.518410   1.490384   2.073355   0.000000
    11  H    3.426298   3.980012   2.059053   2.064191   1.086490
    12  C    3.770890   4.711212   2.753632   3.457663   1.385334
    13  H    4.696602   5.545646   3.521574   3.982835   2.032082
    14  C    4.551541   5.606165   3.848867   4.725232   2.719355
    15  H    5.575119   6.602613   4.747136   5.515764   3.445619
    16  C    4.696588   5.796704   4.367234   5.385039   3.594586
    17  H    4.058405   5.147912   4.031404   5.114444   3.632025
    18  H    5.756454   6.857133   5.454089   6.465287   4.626524
                   11         12         13         14         15
    11  H    0.000000
    12  C    2.014109   0.000000
    13  H    2.088684   1.103909   0.000000
    14  C    3.460469   1.446723   2.014631   0.000000
    15  H    3.947116   2.060783   2.034809   1.095410   0.000000
    16  C    4.514320   2.583916   3.328403   1.327230   2.049148
    17  H    4.670580   2.986314   3.937987   2.119477   3.042318
    18  H    5.489308   3.497959   4.053367   2.082283   2.317910
                   16         17         18
    16  C    0.000000
    17  H    1.073386   0.000000
    18  H    1.087670   1.848000   0.000000
 Stoichiometry    C8H10
 Framework group  CS[SG(C8H10)]
 Deg. of freedom    33
 Full point group                 CS      NOp   2
 Largest Abelian subgroup         CS      NOp   2
 Largest concise Abelian subgroup C1      NOp   1
                         Standard orientation:                         
 ---------------------------------------------------------------------
 Center     Atomic      Atomic             Coordinates (Angstroms)
 Number     Number       Type             X           Y           Z
 ---------------------------------------------------------------------
      1          6           0       -3.541418    0.340790    0.000000
      2          1           0       -3.959755    1.347144    0.000000
      3          1           0       -4.231870   -0.501532    0.000000
      4          6           0       -2.219714    0.141960    0.000000
      5          1           0       -1.839842   -0.864952    0.000000
      6          6           0       -1.330653    1.248195    0.000000
      7          1           0       -1.941883    2.163615    0.000000
      8          6           0        0.000000    1.571262    0.000000
      9          1           0        0.107071    2.663853    0.000000
     10          6           0        1.390855    1.035757    0.000000
     11          1           0        2.030303    1.914146    0.000000
     12          6           0        2.193536   -0.093337    0.000000
     13          1           0        3.252029    0.220043    0.000000
     14          6           0        2.268368   -1.538124    0.000000
     15          1           0        3.328645   -1.813324    0.000000
     16          6           0        1.419875   -2.558712    0.000000
     17          1           0        0.352562   -2.444696    0.000000
     18          1           0        1.817640   -3.571040    0.000000
 ---------------------------------------------------------------------
 Rotational constants (GHZ):      3.1379707      0.9761462      0.7445384
 Standard basis: 6-31G(d) (6D, 7F)
 There are   108 symmetry adapted basis functions of A'  symmetry.
 There are    32 symmetry adapted basis functions of A"  symmetry.
 Integral buffers will be    131072 words long.
 Raffenetti 2 integral format.
 Two-electron integral symmetry is turned on.
   140 basis functions,   264 primitive gaussians,   140 cartesian basis functions
    29 alpha electrons       29 beta electrons
       nuclear repulsion energy       302.3788798364 Hartrees.
 NAtoms=   18 NActive=   18 NUniq=   18 SFac= 1.00D+00 NAtFMM=   60 NAOKFM=F Big=F
 One-electron integrals computed using PRISM.
 NBasis=   140 RedAO= T  NBF=   108    32
 NBsUse=   140 1.00D-06 NBFU=   108    32
 Initial guess read from the read-write file.
 B after Tr=     0.000000    0.000000    0.000000
         Rot=    1.000000    0.000000    0.000000    0.000000 Ang=   0.00 deg.
 Initial guess orbital symmetries:
       Occupied  (A') (A') (A') (A') (A') (A') (A') (A') (A') (A')
                 (A') (A') (A') (A') (A') (A') (A') (A') (A') (A')
                 (A') (A') (A') (A') (A") (A") (A') (A") (A")
       Virtual   (A") (A") (A') (A") (A') (A') (A') (A") (A') (A')
                 (A') (A') (A') (A') (A') (A') (A') (A') (A') (A')
                 (A') (A') (A") (A') (A") (A") (A') (A') (A") (A')
                 (A') (A') (A") (A") (A') (A') (A') (A") (A") (A')
                 (A') (A') (A') (A') (A') (A') (A') (A') (A') (A')
                 (A') (A') (A') (A') (A') (A') (A') (A') (A') (A")
                 (A') (A') (A") (A") (A") (A') (A") (A') (A") (A")
                 (A') (A") (A") (A') (A') (A') (A') (A") (A") (A')
                 (A') (A') (A') (A") (A') (A') (A") (A') (A') (A')
                 (A") (A') (A') (A") (A') (A') (A") (A') (A') (A')
                 (A') (A') (A') (A') (A') (A') (A') (A') (A') (A')
                 (A')
 Harris functional with IExCor=  402 diagonalized for initial guess.
 ExpMin= 1.61D-01 ExpMax= 3.05D+03 ExpMxC= 4.57D+02 IAcc=1 IRadAn=         1 AccDes= 0.00D+00
 HarFok:  IExCor=  402 AccDes= 0.00D+00 IRadAn=         1 IDoV= 1
 ScaDFX=  1.000000  1.000000  1.000000  1.000000
 FoFCou: FMM=F IPFlag=           0 FMFlag=      100000 FMFlg1=           0
         NFxFlg=           0 DoJE=T BraDBF=F KetDBF=T FulRan=T
         Omega=  0.000000  0.000000  1.000000  0.000000  0.000000 ICntrl=     500 IOpCl=  0
         NMat0=    1 NMatS0=    1 NMatT0=    0 NMatD0=    1 NMtDS0=    0 NMtDT0=    0
         I1Cent=           4 NGrid=           0.
 Petite list used in FoFCou.
 Requested convergence on RMS density matrix=1.00D-08 within 128 cycles.
 Requested convergence on MAX density matrix=1.00D-06.
 Requested convergence on             energy=1.00D-06.
 No special actions if energy rises.
 Integral accuracy reduced to 1.0D-05 until final iterations.
 Initial convergence to 1.0D-05 achieved.  Increase integral accuracy.
 SCF Done:  E(RB3LYP) =  -310.742458414     A.U. after   15 cycles
             Convg  =    0.5421D-08             -V/T =  2.0101
 Calling FoFJK, ICntrl=      2127 FMM=F ISym2X=1 I1Cent= 0 IOpClX= 0 NMat=1 NMatS=1 NMatT=0.
 ***** Axes restored to original set *****
 -------------------------------------------------------------------
 Center     Atomic                   Forces (Hartrees/Bohr)
 Number     Number              X              Y              Z
 -------------------------------------------------------------------
      1        6          -0.010955294    0.007532280    0.000000000
      2        1          -0.000355348    0.002571908    0.000000000
      3        1          -0.001146155   -0.003278536    0.000000000
      4        6           0.010447661    0.014160745    0.000000000
      5        1           0.005753547    0.008146209    0.000000000
      6        6           0.001725702   -0.032062603    0.000000000
      7        1           0.005459502    0.000422370    0.000000000
      8        6           0.011394478    0.001693899    0.000000000
      9        1          -0.000080971    0.005756930    0.000000000
     10        6          -0.005704376    0.012942243    0.000000000
     11        1           0.001964251   -0.000629229    0.000000000
     12        6           0.001735301   -0.027456315    0.000000000
     13        1          -0.010578061   -0.003537919    0.000000000
     14        6           0.012785199   -0.004673589    0.000000000
     15        1          -0.003030641    0.004723133    0.000000000
     16        6          -0.005991767    0.011680285    0.000000000
     17        1          -0.010129820    0.001487076    0.000000000
     18        1          -0.003293210    0.000521114    0.000000000
 -------------------------------------------------------------------
 Cartesian Forces:  Max     0.032062603 RMS     0.007960741

 GradGradGradGradGradGradGradGradGradGradGradGradGradGradGradGradGradGrad
 Berny optimization.
 Using GEDIIS/GDIIS optimizer.
 Internal  Forces:  Max     0.045698676 RMS     0.014415041
 Search for a local minimum.
 Step number   3 out of a maximum of   79
 All quantities printed in internal units (Hartrees-Bohrs-Radians)
 Mixed Optimization -- RFO/linear search
 Update second derivatives using D2CorX and points    2    3
 DE= -3.54D-02 DEPred=-8.55D-02 R= 4.14D-01
 Trust test= 4.14D-01 RLast= 7.78D-01 DXMaxT set to 5.05D-01
 ITU=  0  1  0
 Use linear search instead of GDIIS.
     Eigenvalues ---    0.00237   0.00237   0.00237   0.01443   0.01478
     Eigenvalues ---    0.01482   0.01484   0.01493   0.01523   0.02681
     Eigenvalues ---    0.02681   0.02681   0.02681   0.02681   0.02681
     Eigenvalues ---    0.14543   0.16000   0.16000   0.16000   0.16000
     Eigenvalues ---    0.16000   0.16000   0.16000   0.16014   0.17969
     Eigenvalues ---    0.19534   0.22000   0.22000   0.22000   0.22530
     Eigenvalues ---    0.27914   0.28510   0.30945   0.36831   0.37146
     Eigenvalues ---    0.37230   0.37230   0.37230   0.37230   0.37230
     Eigenvalues ---    0.37230   0.37230   0.37821   0.53859   0.53927
     Eigenvalues ---    0.53930   0.56743   0.72880
 RFO step:  Lambda=-1.61050899D-02 EMin= 2.36824052D-03
 Quartic linear search produced a step of -0.25971.
 Iteration  1 RMS(Cart)=  0.25197120 RMS(Int)=  0.00819593
 Iteration  2 RMS(Cart)=  0.05240476 RMS(Int)=  0.00028160
 Iteration  3 RMS(Cart)=  0.00049793 RMS(Int)=  0.00000003
 Iteration  4 RMS(Cart)=  0.00000010 RMS(Int)=  0.00000000
 ClnCor:  largest displacement from symmetrization is 2.44D-11 for atom     5.
 Variable       Old X    -DE/DX   Delta X   Delta X   Delta X     New X
                                 (Linear)    (Quad)   (Total)
    R1        2.05950  -0.00193  -0.00702   0.00215  -0.00487   2.05464
    R2        2.05818  -0.00237  -0.00673   0.00086  -0.00587   2.05231
    R3        2.52576   0.01280   0.00604   0.01488   0.02093   2.54669
    R4        2.03370   0.00996  -0.00065   0.01056   0.00991   2.04360
    R5        2.68194   0.02419   0.04353   0.01805   0.06158   2.74352
    R6        2.08007  -0.00418  -0.01082   0.00082  -0.01001   2.07006
    R7        2.58762  -0.01096  -0.00437  -0.01427  -0.01864   2.56898
    R8        2.07459  -0.00572  -0.00904  -0.00782  -0.01687   2.05772
    R9        2.81642  -0.02275   0.01843  -0.07548  -0.05705   2.75937
   R10        2.05317   0.00139  -0.00581   0.00724   0.00143   2.05460
   R11        2.61790  -0.02530  -0.00976  -0.03028  -0.04003   2.57787
   R12        2.08609  -0.00767  -0.01127  -0.00926  -0.02052   2.06556
   R13        2.73391   0.01088   0.03264   0.00146   0.03410   2.76801
   R14        2.07002  -0.00278  -0.00894   0.00189  -0.00705   2.06297
   R15        2.50810   0.02123   0.00964   0.02139   0.03103   2.53913
   R16        2.02840   0.01023   0.00064   0.00831   0.00895   2.03736
   R17        2.05540  -0.00136  -0.00631   0.00301  -0.00331   2.05209
    A1        2.06099  -0.00294   0.00647  -0.02108  -0.01462   2.04637
    A2        2.11407   0.00064  -0.00310   0.00615   0.00306   2.11713
    A3        2.10812   0.00230  -0.00337   0.01493   0.01156   2.11968
    A4        2.08087  -0.00428   0.00489  -0.02650  -0.02162   2.05925
    A5        2.09846   0.00963  -0.00119   0.03116   0.02996   2.12843
    A6        2.10386  -0.00535  -0.00369  -0.00465  -0.00835   2.09551
    A7        1.87589   0.02234   0.04197   0.02992   0.07189   1.94778
    A8        2.48596  -0.03732   0.03350  -0.10927  -0.07577   2.41019
    A9        1.92134   0.01498  -0.07547   0.07936   0.00388   1.92522
   A10        1.90666   0.01902   0.04319  -0.02075   0.02244   1.92910
   A11        2.53589  -0.03945  -0.02077  -0.02668  -0.04745   2.48843
   A12        1.84064   0.02043  -0.02242   0.04744   0.02501   1.86565
   A13        1.83253   0.02213   0.05562  -0.01669   0.03893   1.87146
   A14        2.55633  -0.04114  -0.10144   0.04889  -0.05255   2.50378
   A15        1.89433   0.01900   0.04581  -0.03219   0.01362   1.90795
   A16        1.90096   0.01440  -0.06844   0.04105  -0.02740   1.87357
   A17        2.57533  -0.04570   0.01267  -0.08734  -0.07468   2.50065
   A18        1.80689   0.03129   0.05578   0.04630   0.10208   1.90897
   A19        1.87650   0.01737  -0.03160   0.07410   0.04249   1.91899
   A20        2.39626  -0.02464   0.01288  -0.05581  -0.04292   2.35334
   A21        2.01043   0.00728   0.01872  -0.01829   0.00043   2.01086
   A22        2.15796  -0.00139  -0.01234   0.01165  -0.00069   2.15727
   A23        2.07362   0.00382   0.00366   0.01198   0.01564   2.08926
   A24        2.05161  -0.00244   0.00868  -0.02363  -0.01495   2.03666
    D1        3.14159   0.00000   0.00000   0.00000   0.00000   3.14159
    D2        0.00000   0.00000   0.00000   0.00000   0.00000   0.00000
    D3        0.00000   0.00000   0.00000   0.00000   0.00000   0.00000
    D4        3.14159   0.00000   0.00000   0.00000   0.00000   3.14159
    D5        0.00000   0.00000   0.00000   0.00000   0.00000   0.00000
    D6        3.14159   0.00000   0.00000   0.00000   0.00000   3.14159
    D7        3.14159   0.00000   0.00000   0.00000   0.00000   3.14159
    D8        0.00000   0.00000   0.00000   0.00000   0.00000   0.00000
    D9        3.14159   0.00000   0.00000   0.00000   0.00000   3.14159
   D10        0.00000   0.00000   0.00000   0.00000   0.00000   0.00000
   D11        0.00000   0.00000   0.00000   0.00000   0.00000   0.00000
   D12        3.14159   0.00000   0.00000   0.00000   0.00000   3.14159
   D13        3.14159   0.00000   0.00000   0.00000   0.00000   3.14159
   D14        0.00000   0.00000   0.00000   0.00000   0.00000   0.00000
   D15        0.00000   0.00000   0.00000   0.00000   0.00000   0.00000
   D16        3.14159   0.00000   0.00000   0.00000   0.00000   3.14159
   D17        3.14159   0.00000   0.00000   0.00000   0.00000   3.14159
   D18        0.00000   0.00000   0.00000   0.00000   0.00000   0.00000
   D19        0.00000   0.00000   0.00000   0.00000   0.00000   0.00000
   D20        3.14159   0.00000   0.00000   0.00000   0.00000   3.14159
   D21        3.14159   0.00000   0.00000   0.00000   0.00000   3.14159
   D22        0.00000   0.00000   0.00000   0.00000   0.00000   0.00000
   D23        0.00000   0.00000   0.00000   0.00000   0.00000   0.00000
   D24        3.14159   0.00000   0.00000   0.00000   0.00000   3.14159
   D25        0.00000   0.00000   0.00000   0.00000   0.00000   0.00000
   D26        3.14159   0.00000   0.00000   0.00000   0.00000   3.14159
   D27        3.14159   0.00000   0.00000   0.00000   0.00000   3.14159
   D28        0.00000   0.00000   0.00000   0.00000   0.00000   0.00000
         Item               Value     Threshold  Converged?
 Maximum Force            0.045699     0.000450     NO 
 RMS     Force            0.014415     0.000300     NO 
 Maximum Displacement     1.119192     0.001800     NO 
 RMS     Displacement     0.301786     0.001200     NO 
 Predicted change in Energy=-1.225735D-02
 GradGradGradGradGradGradGradGradGradGradGradGradGradGradGradGradGradGrad

                          Input orientation:                          
 ---------------------------------------------------------------------
 Center     Atomic      Atomic             Coordinates (Angstroms)
 Number     Number       Type             X           Y           Z
 ---------------------------------------------------------------------
      1          6           0       -6.135197    1.999620    0.000000
      2          1           0       -6.875158    1.202997    0.000000
      3          1           0       -6.504205    3.021043    0.000000
      4          6           0       -4.815002    1.728973    0.000000
      5          1           0       -4.126085    2.562568    0.000000
      6          6           0       -4.309788    0.367908    0.000000
      7          1           0       -5.124311   -0.364567    0.000000
      8          6           0       -3.106461   -0.264629    0.000000
      9          1           0       -3.242929   -1.344944    0.000000
     10          6           0       -1.667117   -0.018745    0.000000
     11          1           0       -1.174853   -0.988170    0.000000
     12          6           0       -0.723590    0.966477    0.000000
     13          1           0        0.255346    0.480227    0.000000
     14          6           0       -0.544102    2.420205    0.000000
     15          1           0        0.519976    2.664134    0.000000
     16          6           0       -1.373645    3.477208    0.000000
     17          1           0       -2.448411    3.392191    0.000000
     18          1           0       -0.963880    4.482849    0.000000
 ---------------------------------------------------------------------
                    Distance matrix (angstroms):
                    1          2          3          4          5
     1  C    0.000000
     2  H    1.087267   0.000000
     3  H    1.086036   1.855504   0.000000
     4  C    1.347651   2.126239   2.126700   0.000000
     5  H    2.086490   3.066894   2.421912   1.081429   0.000000
     6  C    2.448387   2.697870   3.443050   1.451806   2.202336
     7  H    2.571239   2.350048   3.656018   2.116267   3.092665
     8  C    3.781542   4.044379   4.726553   2.625560   3.005442
     9  H    4.421687   4.436788   5.449565   3.452590   4.006072
    10  C    4.902809   5.349425   5.712945   3.600515   3.565067
    11  H    5.790673   6.106938   6.669017   4.542417   4.617089
    12  C    5.509344   6.156114   6.134881   4.161858   3.758255
    13  H    6.568682   7.167042   7.221307   5.221858   4.851091
    14  C    5.606892   6.447005   5.990313   4.326476   3.584811
    15  H    6.688266   7.538098   7.033243   5.416320   4.647171
    16  C    4.985543   5.953039   5.150799   3.859956   2.900429
    17  H    3.941021   4.938488   4.072741   2.892585   1.871594
    18  H    5.736632   6.760224   5.729929   4.734445   3.699597
                    6          7          8          9         10
     6  C    0.000000
[...]
 ! R10   R(10,11)                1.0901         -DE/DX =    0.0                 !
 ! R11   R(10,12)                1.3686         -DE/DX =    0.0                 !
 ! R12   R(12,13)                1.09           -DE/DX =    0.0                 !
 ! R13   R(12,14)                1.4632         -DE/DX =    0.0                 !
 ! R14   R(14,15)                1.0908         -DE/DX =    0.0                 !
 ! R15   R(14,16)                1.3426         -DE/DX =    0.0                 !
 ! R16   R(16,17)                1.0785         -DE/DX =    0.0                 !
 ! R17   R(16,18)                1.0863         -DE/DX =    0.0                 !
 ! A1    A(2,1,3)              116.6967         -DE/DX =    0.0                 !
 ! A2    A(2,1,4)              121.5459         -DE/DX =    0.0                 !
 ! A3    A(3,1,4)              121.7574         -DE/DX =    0.0                 !
 ! A4    A(1,4,5)              118.7631         -DE/DX =    0.0                 !
 ! A5    A(1,4,6)              122.8265         -DE/DX =    0.0                 !
 ! A6    A(5,4,6)              118.4104         -DE/DX =    0.0                 !
 ! A7    A(4,6,7)              112.7897         -DE/DX =    0.0                 !
 ! A8    A(4,6,8)              133.4811         -DE/DX =    0.0                 !
 ! A9    A(7,6,8)              113.7292         -DE/DX =    0.0                 !
 ! A10   A(6,8,9)              110.8978         -DE/DX =    0.0                 !
 ! A11   A(6,8,10)             140.9235         -DE/DX =    0.0                 !
 ! A12   A(9,8,10)             108.1786         -DE/DX =    0.0                 !
 ! A13   A(8,10,11)            106.8882         -DE/DX =    0.0                 !
 ! A14   A(8,10,12)            144.1411         -DE/DX =    0.0                 !
 ! A15   A(11,10,12)           108.9707         -DE/DX =    0.0                 !
 ! A16   A(10,12,13)           109.8426         -DE/DX =    0.0                 !
 ! A17   A(10,12,14)           141.7812         -DE/DX =    0.0                 !
 ! A18   A(13,12,14)           108.3762         -DE/DX =    0.0                 !
 ! A19   A(12,14,15)           110.3594         -DE/DX =    0.0                 !
 ! A20   A(12,14,16)           135.2571         -DE/DX =    0.0                 !
 ! A21   A(15,14,16)           114.3835         -DE/DX =    0.0                 !
 ! A22   A(14,16,17)           124.8795         -DE/DX =    0.0                 !
 ! A23   A(14,16,18)           119.543          -DE/DX =    0.0                 !
 ! A24   A(17,16,18)           115.5775         -DE/DX =    0.0                 !
 ! D1    D(2,1,4,5)            180.0            -DE/DX =    0.0                 !
 ! D2    D(2,1,4,6)              0.0            -DE/DX =    0.0                 !
 ! D3    D(3,1,4,5)              0.0            -DE/DX =    0.0                 !
 ! D4    D(3,1,4,6)            180.0            -DE/DX =    0.0                 !
 ! D5    D(1,4,6,7)              0.0            -DE/DX =    0.0                 !
 ! D6    D(1,4,6,8)            180.0            -DE/DX =    0.0                 !
 ! D7    D(5,4,6,7)            180.0            -DE/DX =    0.0                 !
 ! D8    D(5,4,6,8)              0.0            -DE/DX =    0.0                 !
 ! D9    D(4,6,8,9)            180.0            -DE/DX =    0.0                 !
 ! D10   D(4,6,8,10)             0.0            -DE/DX =    0.0                 !
 ! D11   D(7,6,8,9)              0.0            -DE/DX =    0.0                 !
 ! D12   D(7,6,8,10)           180.0            -DE/DX =    0.0                 !
 ! D13   D(6,8,10,11)          180.0            -DE/DX =    0.0                 !
 ! D14   D(6,8,10,12)            0.0            -DE/DX =    0.0                 !
 ! D15   D(9,8,10,11)            0.0            -DE/DX =    0.0                 !
 ! D16   D(9,8,10,12)          180.0            -DE/DX =    0.0                 !
 ! D17   D(8,10,12,13)         180.0            -DE/DX =    0.0                 !
 ! D18   D(8,10,12,14)           0.0            -DE/DX =    0.0                 !
 ! D19   D(11,10,12,13)          0.0            -DE/DX =    0.0                 !
 ! D20   D(11,10,12,14)        180.0            -DE/DX =    0.0                 !
 ! D21   D(10,12,14,15)        180.0            -DE/DX =    0.0                 !
 ! D22   D(10,12,14,16)          0.0            -DE/DX =    0.0                 !
 ! D23   D(13,12,14,15)          0.0            -DE/DX =    0.0                 !
 ! D24   D(13,12,14,16)        180.0            -DE/DX =    0.0                 !
 ! D25   D(12,14,16,17)          0.0            -DE/DX =    0.0                 !
 ! D26   D(12,14,16,18)        180.0            -DE/DX =    0.0                 !
 ! D27   D(15,14,16,17)        180.0            -DE/DX =    0.0                 !
 ! D28   D(15,14,16,18)          0.0            -DE/DX =    0.0                 !
 --------------------------------------------------------------------------------
 GradGradGradGradGradGradGradGradGradGradGradGradGradGradGradGradGradGrad

 1\1\GINC-NISER-THINKCENTRE-M93P\Freq\RB3LYP\6-31G(d)\C8H10\STUDENT\02-
 Mar-2021\0\\#N Geom=AllCheck Guess=TCheck SCRF=Check GenChk RB3LYP/6-3
 1G(d) Freq\\Title Card Required\\0,1\C,-6.0002969157,2.0795223016,0.\H
 ,-6.8144190736,1.3578698888,0.\H,-6.2786914354,3.1289263452,0.\C,-4.71
 3677349,1.6886224696,0.\H,-3.9417046131,2.4429358728,0.\C,-4.317536589
 7,0.3004189404,0.\H,-5.1687929494,-0.3819660961,0.\C,-3.1096790495,-0.
 3298101794,0.\H,-3.2360098617,-1.4122955432,0.\C,-1.6768650591,-0.0377
 255603,0.\H,-1.1582023182,-0.9965608542,0.\C,-0.7501540253,0.969394692
 ,0.\H,0.2548799487,0.5474053379,0.\C,-0.637896212,2.42826345,0.\H,0.41
 08601797,2.7281819919,0.\C,-1.5070692788,3.4516092813,0.\H,-2.58064766
 49,3.3489300034,0.\H,-1.1335093328,4.4716222584,0.\\Version=EM64L-G09R
 evC.01\State=1-A'\HF=-310.7620457\RMSD=1.888e-09\RMSF=7.720e-06\ZeroPo
 int=0.153247\Thermal=0.1606524\Dipole=-0.0372161,0.0274752,0.\DipoleDe
 riv=-0.0128169,0.0788822,0.,0.2495545,0.1069991,0.,0.,0.,-0.2992334,-0
 .0229267,-0.0403625,0.,-0.09664,-0.0384491,0.,0.,0.,0.1366506,0.019266
 5,0.0054502,0.,0.0587729,-0.0798328,0.,0.,0.,0.1341926,-0.0880336,0.00
 40422,0.,-0.1521285,0.0155776,0.,0.,0.,-0.0479669,0.0174722,-0.0597651
 ,0.,-0.0049507,-0.0387256,0.,0.,0.,0.0946328,0.1581692,0.0399291,0.,-0
 .1975608,0.1149914,0.,0.,0.,-0.0794733,-0.0889965,-0.0908887,0.,-0.039
 3402,-0.0362219,0.,0.,0.,0.0899594,-0.0523382,0.0600764,0.,0.3775287,0
 .1620631,0.,0.,0.,-0.1222304,-0.0061781,-0.0110796,0.,-0.0233864,-0.15
 66453,0.,0.,0.,0.0951665,0.3250081,0.0101501,0.,-0.2801187,-0.0335227,
 0.,0.,0.,-0.0867797,-0.0433393,0.0534207,0.,0.0759365,-0.1324281,0.,0.
 ,0.,0.0881205,-0.1322499,-0.2665725,0.,-0.000127,0.1449626,0.,0.,0.,-0
 .11332,-0.1529112,0.0549119,0.,0.0406508,-0.0236821,0.,0.,0.,0.0898383
 ,0.2903717,0.2327233,0.,0.1433759,0.1284131,0.,0.,0.,-0.0662388,-0.162
 9881,-0.0648411,0.,-0.0360995,0.0031326,0.,0.,0.,0.1011584,0.0129853,0
 .0529788,0.,-0.0633565,-0.0912056,0.,0.,0.,-0.2781061,-0.0796542,0.002
 3873,0.,-0.0036482,0.0447423,0.,0.,0.,0.1383923,0.0191598,-0.0614427,0
 .,-0.048463,-0.0901686,0.,0.,0.,0.1252371\Polar=159.801866,-0.893006,1
 12.4743822,0.,0.,28.7955697\PG=CS [SG(C8H10)]\NImag=2\\0.81158706,-0.0
 5740227,0.67278373,0.,0.,0.10382384,-0.21101236,-0.13641615,0.,0.22537
 127,-0.14023357,-0.18683936,0.,0.15155455,0.18961216,0.,0.,-0.03412950
 ,0.,0.,0.02227861,-0.07530467,0.06426605,0.,0.00820443,-0.02130882,0.,
 0.07449816,0.06870787,-0.32963870,0.,0.00632165,-0.01398149,0.,-0.0759
 5517,0.34549655,0.,0.,-0.03226691,0.,0.,0.00249109,0.,0.,0.02157883,-0
 .49179434,0.10927515,0.,-0.02050455,0.00648202,0.,-0.00364088,-0.00092
 362,0.,0.83235877,0.09443466,-0.14316417,0.,-0.02321155,0.00942352,0.,
 0.03185015,-0.00432206,0.,-0.00200764,0.64382441,0.,0.,-0.04980611,0.,
 0.,0.00492348,0.,0.,0.00467790,0.,0.,0.12872997,-0.02109800,-0.0229751
 8,0.,-0.00404022,0.00207753,0.,0.00128166,0.00022865,0.,-0.20478576,-0
 .14551892,0.,0.22670342,0.00903640,0.01004686,0.,0.00275342,0.00029596
 ,0.,0.00000133,0.00107669,0.,-0.14694566,-0.20196043,0.,0.16422168,0.2
 1445625,0.,0.,0.00547418,0.,0.,0.01107445,0.,0.,-0.00687766,0.,0.,-0.0
 3991561,0.,0.,0.02087831,-0.02489397,0.04529313,0.,0.00143350,0.002172
 33,0.,-0.00559621,0.00141442,0.,-0.10016697,0.01667869,0.,0.01032751,-
 0.02427832,0.,0.74682495,0.03436839,-0.01979509,0.,-0.00278775,0.00093
 149,0.,-0.00101933,0.00109245,0.,0.02168138,-0.26624584,0.,0.00660002,
 -0.01809527,0.,-0.07363051,0.65336331,0.,0.,0.00649042,0.,0.,-0.007805
 64,0.,0.,0.01217118,0.,0.,-0.06489488,0.,0.,0.00357640,0.,0.,0.1313116
 6,0.00138110,0.00209187,0.,0.00024934,-0.00051369,0.,0.00020535,-0.000
 05485,0.,0.00544687,0.00482086,0.,0.00029453,0.00179237,0.,-0.21560874
 ,-0.13120657,0.,0.23639878,-0.00171095,0.00101583,0.,0.00151578,0.0002
 3754,0.,0.00037154,0.00051980,0.,-0.02580482,-0.02291085,0.,0.00271183
 ,-0.00473728,0.,-0.13415215,-0.16354334,0.,0.13628918,0.18037095,0.,0.
 ,-0.00177299,0.,0.,0.00029458,0.,0.,-0.00025486,0.,0.,0.00445702,0.,0.
 ,0.00403007,0.,0.,-0.03842536,0.,0.,0.02553089,0.01558247,-0.00606050,
 0.,0.00038795,-0.00020367,0.,0.00081969,0.00003371,0.,-0.01816818,0.03
 129825,0.,0.00013864,0.00023521,0.,-0.37109257,0.10529814,0.,-0.026208
 81,0.01548126,0.,0.71761033,-0.00620593,-0.00413963,0.,0.00028053,0.00
 035846,0.,0.00158840,-0.00014492,0.,0.03740689,-0.01553278,0.,-0.00041
 225,0.00112515,0.,0.15897595,-0.18376875,0.,-0.01650105,0.00695088,0.,
 -0.09284370,0.61915332,0.,0.,0.00220743,0.,0.,0.00013840,0.,0.,-0.0000
 2766,0.,0.,0.00457238,0.,0.,-0.00158032,0.,0.,-0.05166450,0.,0.,0.0045
 8715,0.,0.,0.12672236,0.00057402,0.00090788,0.,-0.00005111,-0.00011874
 ,0.,-0.00040192,0.00010576,0.,-0.00393105,0.00118426,0.,0.00006452,0.0
 0017608,0.,-0.00249550,0.03252447,0.,-0.00044950,0.00270524,0.,-0.0541
 5178,-0.03212974,0.,0.08117875,-0.00017475,-0.00093267,0.,0.00007516,0
 .00003828,0.,0.00031297,-0.00007745,0.,0.00292225,0.00192321,0.,-0.000
 19692,0.00018371,0.,-0.00040498,-0.01916118,0.,0.00043399,0.00189080,0
 .,-0.03213963,-0.32351622,0.,0.03001342,0.34435510,0.,0.,-0.00017312,0
 .,0.,0.00037675,0.,0.,-0.00135846,0.,0.,0.01207972,0.,0.,-0.00031479,0
 .,0.,0.00464140,0.,0.,-0.00742410,0.,0.,-0.03872882,0.,0.,0.02563616,-
 0.00674578,0.00155271,0.,0.00004558,0.00007600,0.,0.00009475,-0.000107
 83,0.,0.01048909,-0.01137802,0.,-0.00011218,0.00020917,0.,-0.04455559,
 0.01916815,0.,0.00002059,0.00203966,0.,-0.21046351,-0.05972664,0.,-0.0
 1462379,0.00017966,0.,0.64472956,-0.00294076,0.00165579,0.,0.00003160,
 -0.00006688,0.,-0.00012786,-0.00007938,0.,0.00390235,-0.00443084,0.,-0
 .00024832,0.00008537,0.,-0.00061129,0.01843752,0.,0.00235335,0.0006979
 6,0.,0.01203682,-0.10492227,0.,-0.03279308,-0.00984551,0.,0.09809667,0
 .66336479,0.,0.,0.00025016,0.,0.,0.00005571,0.,0.,0.00008907,0.,0.,-0.
 00553894,0.,0.,0.00016711,0.,0.,0.00265729,0.,0.,0.01065449,0.,0.,-0.0
 6051407,0.,0.,0.00381374,0.,0.,0.12814639,-0.00020013,0.00025957,0.,0.
 00003687,0.00000244,0.,-0.00005385,0.00005105,0.,0.00008084,-0.0007740
 6,0.,0.00007623,0.00000917,0.,-0.00308485,-0.00211876,0.,-0.00114371,0
 .00023481,0.,-0.02585777,0.02679417,0.,-0.00173685,0.00038552,0.,-0.11
 229733,0.11766715,0.,0.14160759,-0.00002241,0.00007574,0.,0.00002308,0
 .00000444,0.,-0.00001790,0.00000017,0.,-0.00021512,-0.00011306,0.,-0.0
 0004670,0.00005004,0.,-0.00094032,0.00229445,0.,0.00022865,-0.00022321
 ,0.,-0.00609882,0.00060879,0.,-0.00233541,0.00278332,0.,0.11718028,-0.
 26181879,0.,-0.11089718,0.28539685,0.,0.,-0.00007250,0.,0.,-0.00001104
 ,0.,0.,0.00003635,0.,0.,-0.00020942,0.,0.,0.00000969,0.,0.,0.00309306,
 0.,0.,-0.00012435,0.,0.,0.00475277,0.,0.,-0.00134940,0.,0.,-0.03772063
 ,0.,0.,0.02521108,0.00222901,0.00033177,0.,0.00017804,-0.00006314,0.,-
 0.00009902,0.00008464,0.,-0.00332862,0.00268700,0.,-0.00032828,0.00071
 471,0.,0.00953255,-0.00987211,0.,-0.00041873,0.00037927,0.,-0.03277533
 ,-0.01355614,0.,-0.00267691,-0.00099869,0.,-0.24757112,-0.18479744,0.,
 0.00281961,0.00786648,0.,0.65112621,0.00322503,-0.00151542,0.,-0.00011
 220,-0.00003521,0.,0.00006604,0.00004264,0.,-0.00406661,0.00578966,0.,
 0.00041967,0.00002038,0.,0.01405111,-0.00851681,0.,0.00068993,-0.00061
 229,0.,-0.03655618,0.00394158,0.,-0.00010976,0.00267619,0.,-0.12482994
 ,-0.27399519,0.,-0.02318020,-0.02859950,0.,0.09229435,0.67367939,0.,0.
 ,0.00003533,0.,0.,0.00003517,0.,0.,-0.00003159,0.,0.,0.00026030,0.,0.,
 0.00007136,0.,0.,-0.00084605,0.,0.,-0.00041760,0.,0.,0.00295184,0.,0.,
 0.00298580,0.,0.,-0.05086083,0.,0.,0.00428701,0.,0.,0.12737036,0.00000
 093,0.00005463,0.,-0.00000873,-0.00001325,0.,-0.00002069,0.00002128,0.
 ,0.00000770,0.00001607,0.,0.00003730,-0.00000248,0.,-0.00001447,-0.000
 49480,0.,-0.00022643,0.00012516,0.,0.00137541,-0.00200571,0.,-0.000878
 02,-0.00055517,0.,-0.02629825,0.00499326,0.,0.00051804,-0.00140578,0.,
 -0.28324143,0.10048449,0.,0.30540861,0.00009864,0.00008557,0.,0.000032
 82,-0.00000521,0.,-0.00001912,0.00001026,0.,-0.00016948,-0.00000840,0.
 ,-0.00004576,0.00005543,0.,-0.00002695,-0.00088724,0.,-0.00025803,0.00
 015290,0.,-0.00254121,-0.00019909,0.,-0.00023942,-0.00041505,0.,-0.025
 99438,0.00106606,0.,-0.00519710,0.00001188,0.,0.10138166,-0.09307685,0
 .,-0.09671839,0.12039020,0.,0.,-0.00007350,0.,0.,0.00004406,0.,0.,0.00
 001661,0.,0.,0.00034618,0.,0.,0.00000232,0.,0.,-0.00009764,0.,0.,-0.00
 141645,0.,0.,0.01173821,0.,0.,-0.00003304,0.,0.,0.00407035,0.,0.,-0.00
 852769,0.,0.,-0.03662699,0.,0.,0.02447908,0.00040507,-0.00087838,0.,-0
 .00015677,-0.00003829,0.,0.00012279,-0.00000183,0.,-0.00001191,0.00088
 119,0.,0.00061938,0.00067776,0.,0.00096093,-0.00040419,0.,0.00015246,-
 0.00024401,0.,-0.00280417,-0.00224398,0.,-0.00054569,0.00018373,0.,0.0
 1158475,-0.00975522,0.,-0.00005932,-0.00272166,0.,-0.10539005,-0.04383
 430,0.,-0.00094952,0.03081030,0.,0.70321376,-0.00182120,-0.00007793,0.
 ,-0.00010118,0.00001294,0.,0.00009474,-0.00007237,0.,0.00259452,-0.001
 81969,0.,0.00009957,-0.00006925,0.,-0.00713811,0.00618664,0.,-0.000066
 03,-0.00009295,0.,0.01729389,-0.00042950,0.,0.00060151,0.00014612,0.,-
 0.02898918,-0.03457619,0.,-0.00257022,0.00067483,0.,0.02005304,-0.2263
 1139,0.,-0.00344055,-0.02088482,0.,-0.13180675,0.70330276,0.,0.,0.0000
 3092,0.,0.,-0.00002619,0.,0.,-0.00007716,0.,0.,0.00012477,0.,0.,0.0000
 5901,0.,0.,-0.00003296,0.,0.,0.00072178,0.,0.,-0.00628135,0.,0.,0.0000
 4004,0.,0.,0.00264569,0.,0.,0.01192409,0.,0.,-0.06192373,0.,0.,0.00510
 890,0.,0.,0.12829691,-0.00004346,-0.00008018,0.,-0.00005209,-0.0000091
 1,0.,0.00000324,0.00001714,0.,0.00013977,0.00009308,0.,0.00012163,-0.0
 0003218,0.,-0.00008594,0.00001538,0.,-0.00001641,-0.00005602,0.,0.0000
 2236,0.00022715,0.,-0.00000002,-0.00002673,0.,0.00247914,-0.00030121,0
 .,-0.00031883,-0.00040699,0.,-0.00451031,0.00181279,0.,0.00238941,0.00
 058434,0.,-0.30413407,-0.07300854,0.,0.32714557,0.00000828,0.00023227,
 0.,0.00005576,0.00000460,0.,-0.00003208,0.00000140,0.,-0.00013891,-0.0
 0026041,0.,-0.00011252,-0.00003813,0.,0.00004580,0.00004536,0.,-0.0000
 5308,0.00009377,0.,0.00061548,-0.00038442,0.,-0.00028364,-0.00003561,0
 .,0.00119033,-0.00291407,0.,-0.00029739,-0.00107459,0.,-0.03195843,-0.
 01625861,0.,-0.00104865,-0.00076545,0.,-0.07156676,-0.07454399,0.,0.07
 207908,0.09151894,0.,0.,0.00000619,0.,0.,-0.00001330,0.,0.,0.00001881,
 0.,0.,-0.00014568,0.,0.,-0.00000575,0.,0.,0.00003949,0.,0.,0.00006097,
 0.,0.,-0.00001291,0.,0.,-0.00018194,0.,0.,0.00261201,0.,0.,-0.00007818
 ,0.,0.,0.00349815,0.,0.,-0.00109752,0.,0.,-0.04204024,0.,0.,0.02742010
 ,-0.00072612,0.00073274,0.,0.00028480,0.00008969,0.,-0.00006761,-0.000
 07178,0.,0.00265099,0.00120560,0.,-0.00530690,-0.00378406,0.,-0.001565
 86,0.00112848,0.,-0.00005452,0.00029576,0.,0.00531173,0.00056882,0.,0.
 00004591,0.00003959,0.,-0.00607796,-0.00847704,0.,-0.00065883,-0.00043
 124,0.,0.01481366,0.01902775,0.,0.00202793,-0.00251057,0.,-0.29523084,
 0.18968574,0.,-0.02391228,0.02724419,0.,0.75621654,0.00035851,-0.00052
 744,0.,-0.00014463,0.00007246,0.,-0.00013328,0.00007947,0.,-0.00164051
 ,0.00200316,0.,-0.00216644,-0.00193689,0.,0.00227938,-0.00220247,0.,-0
 .00002123,-0.00000698,0.,-0.00583640,0.00092984,0.,-0.00015294,-0.0000
 4562,0.,0.01109542,0.00786548,0.,-0.00017335,0.00002287,0.,0.01326915,
 -0.03943649,0.,0.00009517,-0.00454018,0.,0.21488130,-0.34118753,0.,-0.
 00482464,0.00629566,0.,-0.09654888,0.74039184,0.,0.,0.00013786,0.,0.,0
 .00008688,0.,0.,-0.00012826,0.,0.,0.00109695,0.,0.,-0.00075624,0.,0.,-
 0.00007208,0.,0.,-0.00036225,0.,0.,0.00039244,0.,0.,0.00001573,0.,0.,-
 0.00043945,0.,0.,-0.00041548,0.,0.,0.00510324,0.,0.,0.00230766,0.,0.,-
 0.04800010,0.,0.,0.00547537,0.,0.,0.09982919,0.00026003,-0.00029076,0.
 ,-0.00015797,0.00002283,0.,-0.00003247,0.00008795,0.,-0.00509596,-0.00
 293288,0.,-0.00409907,-0.00442012,0.,0.00049321,0.00046245,0.,-0.00004
 795,0.00000579,0.,0.00007588,-0.00001947,0.,0.00001758,-0.00001583,0.,
 0.00007767,0.00053649,0.,0.00007263,0.00009396,0.,0.00093305,-0.000842
 45,0.,0.00010758,0.00005969,0.,-0.01619490,-0.00495567,0.,-0.00072239,
 0.00325343,0.,-0.35211411,-0.03031988,0.,0.38270979,0.00031606,0.00071
 688,0.,0.00013558,-0.00006978,0.,0.00007464,-0.00001495,0.,-0.00257115
 ,-0.00231517,0.,-0.00444530,-0.00040668,0.,0.00029433,-0.00008218,0.,0
 .00000261,0.00019374,0.,-0.00002068,-0.00014473,0.,-0.00001929,0.00005
 969,0.,-0.00004279,-0.00026102,0.,-0.00002028,0.00008313,0.,-0.0009516
 5,0.00095372,0.,-0.00023588,0.00012028,0.,0.02580544,0.01055910,0.,0.0
 0364784,-0.00289793,0.,-0.03332932,-0.06257510,0.,0.03866830,0.0560002
 2,0.,0.,-0.00011003,0.,0.,0.00047058,0.,0.,-0.00027180,0.,0.,-0.000830
 94,0.,0.,0.00431300,0.,0.,-0.00012262,0.,0.,-0.00033965,0.,0.,0.000418
 30,0.,0.,-0.00004457,0.,0.,0.00026880,0.,0.,0.00045606,0.,0.,-0.007409
 46,0.,0.,-0.00019980,0.,0.,0.00522516,0.,0.,0.01274624,0.,0.,-0.033687
 11,0.,0.,0.01570477,-0.00020084,-0.00066207,0.,-0.00020797,0.00002490,
 0.,-0.00001274,0.00004097,0.,0.00025419,0.00067327,0.,0.00010559,-0.00
 036448,0.,-0.00041197,0.00028716,0.,0.00002576,-0.00018731,0.,0.000197
 64,-0.00019729,0.,0.00006135,-0.00003357,0.,-0.00077562,0.00043453,0.,
 0.00019967,0.00014706,0.,-0.00129233,0.00146048,0.,-0.00023536,0.00075
 296,0.,0.00841810,0.02347444,0.,0.00149468,0.00099912,0.,-0.09563654,-
 0.10001676,0.,-0.00628258,-0.02730845,0.,0.09429897,-0.00004200,0.0000
 1774,0.,-0.00000646,0.00000608,0.,-0.00001231,0.00001189,0.,0.00021895
 ,0.00011974,0.,-0.00019061,-0.00015190,0.,-0.00002251,-0.00005302,0.,-
 0.00002829,0.00000273,0.,0.00000805,0.00011429,0.,-0.00003659,-0.00002
 710,0.,0.00028074,-0.00026283,0.,-0.00017532,-0.00017733,0.,0.00313553
 ,0.00125421,0.,0.00013059,-0.00111027,0.,-0.00974434,-0.02081677,0.,0.
 00026881,0.00098122,0.,-0.09486546,-0.30520208,0.,0.00060618,0.0000807
 7,0.,0.10047505,0.32521263,0.,0.,-0.00005169,0.,0.,-0.00028408,0.,0.,0
 .00021454,0.,0.,0.00007291,0.,0.,-0.00020553,0.,0.,-0.00001915,0.,0.,0
 .00020065,0.,0.,0.00032837,0.,0.,0.00001892,0.,0.,-0.00035688,0.,0.,-0
 .00126139,0.,0.,0.01151771,0.,0.,-0.00004073,0.,0.,0.00420445,0.,0.,-0
 .00830180,0.,0.,-0.03058434,0.,0.,0.00341306,0.,0.,0.02113496\\0.00002
 019,-0.00000351,0.,-0.00000007,-0.00000083,0.,-0.00000376,-0.00000176,
 0.,-0.00002117,-0.00000176,0.,0.00000990,-0.00000419,0.,0.00000523,0.0
 0001336,0.,-0.00000289,-0.00000256,0.,-0.00000967,-0.00000932,0.,0.000
 00877,0.00000803,0.,0.00001247,0.00001812,0.,-0.00000325,-0.00000356,0
 .,-0.00001056,-0.00002547,0.,-0.00000599,-0.00000513,0.,0.00000558,0.0
 0001588,0.,-0.00000018,0.00000188,0.,0.00000182,0.00000345,0.,-0.00000
 311,-0.00000409,0.,-0.00000332,0.00000147,0.\\\@


 FROM THE ASHES OF OUR DESPAIR GROW THE FLOWERS OF TOMORROW.
 Job cpu time:  0 days  0 hours  2 minutes 54.0 seconds.
 File lengths (MBytes):  RWF=     49 Int=      0 D2E=      0 Chk=      3 Scr=      1
 Normal termination of Gaussian 09 at Tue Mar  2 16:40:48 2021.
