 Entering Gaussian System, Link 0=g09
 Input=5.com
 Output=5.log
 Initial command:
 /home/student/g09/l1.exe /home/student/singh/octa/Gau-23584.inp -scrdir=/home/student/singh/octa/
 Entering Link 1 = /home/student/g09/l1.exe PID=     23586.
  
 Copyright (c) 1988,1990,1992,1993,1995,1998,2003,2009,2011,
            Gaussian, Inc.  All Rights Reserved.
  
 This is part of the Gaussian(R) 09 program.  It is based on
 the Gaussian(R) 03 system (copyright 2003, Gaussian, Inc.),
 the Gaussian(R) 98 system (copyright 1998, Gaussian, Inc.),
 the Gaussian(R) 94 system (copyright 1995, Gaussian, Inc.),
 the Gaussian 92(TM) system (copyright 1992, Gaussian, Inc.),
 the Gaussian 90(TM) system (copyright 1990, Gaussian, Inc.),
 the Gaussian 88(TM) system (copyright 1988, Gaussian, Inc.),
 the Gaussian 86(TM) system (copyright 1986, Carnegie Mellon
 University), and the Gaussian 82(TM) system (copyright 1983,
 Carnegie Mellon University). Gaussian is a federally registered
 trademark of Gaussian, Inc.
  
 This software contains proprietary and confidential information,
 including trade secrets, belonging to Gaussian, Inc.
  
 This software is provided under written license and may be
 used, copied, transmitted, or stored only in accord with that
 written license.
  
 The following legend is applicable only to US Government
 contracts under FAR:
  
                    RESTRICTED RIGHTS LEGEND
  
 Use, reproduction and disclosure by the US Government is
 subject to restrictions as set forth in subparagraphs (a)
 and (c) of the Commercial Computer Software - Restricted
 Rights clause in FAR 52.227-19.
  
 Gaussian, Inc.
 340 Quinnipiac St., Bldg. 40, Wallingford CT 06492
  
  
 ---------------------------------------------------------------
 Warning -- This program may not be used in any manner that
 competes with the business of Gaussian, Inc. or will provide
 assistance to any competitor of Gaussian, Inc.  The licensee
 of this program is prohibited from giving any competitor of
 Gaussian, Inc. access to this program.  By using this program,
 the user acknowledges that Gaussian, Inc. is engaged in the
 business of creating and licensing software in the field of
 computational chemistry and represents and warrants to the
 licensee that it is not a competitor of Gaussian, Inc. and that
 it will not use this program in any manner prohibited above.
 ---------------------------------------------------------------
  

 Cite this work as:
 Gaussian 09, Revision C.01,
 M. J. Frisch, G. W. Trucks, H. B. Schlegel, G. E. Scuseria, 
 M. A. Robb, J. R. Cheeseman, G. Scalmani, V. Barone, B. Mennucci, 
 G. A. Petersson, H. Nakatsuji, M. Caricato, X. Li, H. P. Hratchian, 
 A. F. Izmaylov, J. Bloino, G. Zheng, J. L. Sonnenberg, M. Hada, 
 M. Ehara, K. Toyota, R. Fukuda, J. Hasegawa, M. Ishida, T. Nakajima, 
 Y. Honda, O. Kitao, H. Nakai, T. Vreven, J. A. Montgomery, Jr., 
 J. E. Peralta, F. Ogliaro, M. Bearpark, J. J. Heyd, E. Brothers, 
 K. N. Kudin, V. N. Staroverov, T. Keith, R. Kobayashi, J. Normand, 
 K. Raghavachari, A. Rendell, J. C. Burant, S. S. Iyengar, J. Tomasi, 
 M. Cossi, N. Rega, J. M. Millam, M. Klene, J. E. Knox, J. B. Cross, 
 V. Bakken, C. Adamo, J. Jaramillo, R. Gomperts, R. E. Stratmann, 
 O. Yazyev, A. J. Austin, R. Cammi, C. Pomelli, J. W. Ochterski, 
 R. L. Martin, K. Morokuma, V. G. Zakrzewski, G. A. Voth, 
 P. Salvador, J. J. Dannenberg, S. Dapprich, A. D. Daniels, 
 O. Farkas, J. B. Foresman, J. V. Ortiz, J. Cioslowski, 
 and D. J. Fox, Gaussian, Inc., Wallingford CT, 2010.
 
 ******************************************
 Gaussian 09:  EM64L-G09RevC.01 23-Sep-2011
                 2-Mar-2021 
 ******************************************
 %nproc=2
 Will use up to    2 processors via shared memory.
 %chk=5.chk
 -----------------------------------------
 # opt freq b3lyp/6-31g* geom=connectivity
 -----------------------------------------
 1/14=-1,18=20,19=15,26=3,38=1,57=2/1,3;
 2/9=110,12=2,17=6,18=5,40=1/2;
 3/5=1,6=6,7=1,11=2,16=1,25=1,30=1,71=1,74=-5/1,2,3;
 4//1;
 5/5=2,38=5/2;
 6/7=2,8=2,9=2,10=2,28=1/1;
 7//1,2,3,16;
 1/14=-1,18=20,19=15/3(2);
 2/9=110/2;
 99//99;
 2/9=110/2;
 3/5=1,6=6,7=1,11=2,16=1,25=1,30=1,71=1,74=-5/1,2,3;
 4/5=5,16=3/1;
 5/5=2,38=5/2;
 7//1,2,3,16;
 1/14=-1,18=20,19=15/3(-5);
 2/9=110/2;
 6/7=2,8=2,9=2,10=2,19=2,28=1/1;
 99/9=1/99;
 -------------------
 Title Card Required
 -------------------
 Charge =  0 Multiplicity = 1
 Symbolic Z-Matrix:
 C                    -3.61909  -4.42935   0. 
 H                    -2.54979  -4.39064   0. 
 H                    -4.11835  -5.37574   0. 
 C                    -4.34325  -3.28385   0. 
 H                    -5.41255  -3.32256   0. 
 C                    -4.21747  -1.749     0. 
 H                    -5.09854  -1.14185   0. 
 C                    -3.53523  -0.57805   0. 
 H                    -4.06287   0.3528    0. 
 C                    -1.99526  -0.5872    0. 
 H                    -1.85388   0.47341   0. 
 C                    -0.91981  -1.41181   0. 
 H                    -0.34026  -0.51235   0. 
 C                    -0.21304  -2.78005   0. 
 H                     0.79201  -2.41292   0. 
 C                    -0.44417  -4.11539   0. 
 H                    -1.44702  -4.48849   0. 
 H                     0.37901  -4.79897  0. 
 

 GradGradGradGradGradGradGradGradGradGradGradGradGradGradGradGradGradGrad
 Berny optimization.
 Initialization pass.
                           ----------------------------
                           !    Initial Parameters    !
                           ! (Angstroms and Degrees)  !
 --------------------------                            --------------------------
 ! Name  Definition              Value          Derivative Info.                !
 --------------------------------------------------------------------------------
 ! R1    R(1,2)                  1.07           estimate D2E/DX2                !
 ! R2    R(1,3)                  1.07           estimate D2E/DX2                !
 ! R3    R(1,4)                  1.3552         estimate D2E/DX2                !
 ! R4    R(4,5)                  1.07           estimate D2E/DX2                !
 ! R5    R(4,6)                  1.54           estimate D2E/DX2                !
 ! R6    R(6,7)                  1.07           estimate D2E/DX2                !
 ! R7    R(6,8)                  1.3552         estimate D2E/DX2                !
 ! R8    R(8,9)                  1.07           estimate D2E/DX2                !
 ! R9    R(8,10)                 1.54           estimate D2E/DX2                !
 ! R10   R(10,11)                1.07           estimate D2E/DX2                !
 ! R11   R(10,12)                1.3552         estimate D2E/DX2                !
 ! R12   R(12,13)                1.07           estimate D2E/DX2                !
 ! R13   R(12,14)                1.54           estimate D2E/DX2                !
 ! R14   R(14,15)                1.07           estimate D2E/DX2                !
 ! R15   R(14,16)                1.3552         estimate D2E/DX2                !
 ! R16   R(16,17)                1.07           estimate D2E/DX2                !
 ! R17   R(16,18)                1.07           estimate D2E/DX2                !
 ! A1    A(2,1,3)              119.8865         estimate D2E/DX2                !
 ! A2    A(2,1,4)              120.2269         estimate D2E/DX2                !
 ! A3    A(3,1,4)              119.8865         estimate D2E/DX2                !
 ! A4    A(1,4,5)              120.2269         estimate D2E/DX2                !
 ! A5    A(1,4,6)              143.0152         estimate D2E/DX2                !
 ! A6    A(5,4,6)               96.7579         estimate D2E/DX2                !
 ! A7    A(4,6,7)              119.8865         estimate D2E/DX2                !
 ! A8    A(4,6,8)              154.4577         estimate D2E/DX2                !
 ! A9    A(7,6,8)               85.6557         estimate D2E/DX2                !
 ! A10   A(6,8,9)              120.2269         estimate D2E/DX2                !
 ! A11   A(6,8,10)             119.8865         estimate D2E/DX2                !
 ! A12   A(9,8,10)             119.8865         estimate D2E/DX2                !
 ! A13   A(8,10,11)             97.2523         estimate D2E/DX2                !
 ! A14   A(8,10,12)            142.8611         estimate D2E/DX2                !
 ! A15   A(11,10,12)           119.8865         estimate D2E/DX2                !
 ! A16   A(10,12,13)            85.3153         estimate D2E/DX2                !
 ! A17   A(10,12,14)           154.7982         estimate D2E/DX2                !
 ! A18   A(13,12,14)           119.8865         estimate D2E/DX2                !
 ! A19   A(12,14,15)            97.2523         estimate D2E/DX2                !
 ! A20   A(12,14,16)           142.8611         estimate D2E/DX2                !
 ! A21   A(15,14,16)           119.8865         estimate D2E/DX2                !
 ! A22   A(14,16,17)           120.2269         estimate D2E/DX2                !
 ! A23   A(14,16,18)           119.8865         estimate D2E/DX2                !
 ! A24   A(17,16,18)           119.8865         estimate D2E/DX2                !
 ! D1    D(2,1,4,5)            180.0            estimate D2E/DX2                !
 ! D2    D(2,1,4,6)              0.0            estimate D2E/DX2                !
 ! D3    D(3,1,4,5)              0.0            estimate D2E/DX2                !
 ! D4    D(3,1,4,6)            180.0            estimate D2E/DX2                !
 ! D5    D(1,4,6,7)            180.0            estimate D2E/DX2                !
 ! D6    D(1,4,6,8)              0.0            estimate D2E/DX2                !
 ! D7    D(5,4,6,7)              0.0            estimate D2E/DX2                !
 ! D8    D(5,4,6,8)            180.0            estimate D2E/DX2                !
 ! D9    D(4,6,8,9)            180.0            estimate D2E/DX2                !
 ! D10   D(4,6,8,10)             0.0            estimate D2E/DX2                !
 ! D11   D(7,6,8,9)              0.0            estimate D2E/DX2                !
 ! D12   D(7,6,8,10)           180.0            estimate D2E/DX2                !
 ! D13   D(6,8,10,11)          180.0            estimate D2E/DX2                !
 ! D14   D(6,8,10,12)            0.0            estimate D2E/DX2                !
 ! D15   D(9,8,10,11)            0.0            estimate D2E/DX2                !
 ! D16   D(9,8,10,12)          180.0            estimate D2E/DX2                !
 ! D17   D(8,10,12,13)         180.0            estimate D2E/DX2                !
 ! D18   D(8,10,12,14)           0.0            estimate D2E/DX2                !
 ! D19   D(11,10,12,13)          0.0            estimate D2E/DX2                !
 ! D20   D(11,10,12,14)        180.0            estimate D2E/DX2                !
 ! D21   D(10,12,14,15)        180.0            estimate D2E/DX2                !
 ! D22   D(10,12,14,16)          0.0            estimate D2E/DX2                !
 ! D23   D(13,12,14,15)          0.0            estimate D2E/DX2                !
 ! D24   D(13,12,14,16)        180.0            estimate D2E/DX2                !
 ! D25   D(12,14,16,17)          0.0            estimate D2E/DX2                !
 ! D26   D(12,14,16,18)        180.0            estimate D2E/DX2                !
 ! D27   D(15,14,16,17)        180.0            estimate D2E/DX2                !
 ! D28   D(15,14,16,18)          0.0            estimate D2E/DX2                !
 --------------------------------------------------------------------------------
 Trust Radius=3.00D-01 FncErr=1.00D-07 GrdErr=1.00D-06
 Number of steps in this run=     79 maximum allowed number of steps=    108.
 GradGradGradGradGradGradGradGradGradGradGradGradGradGradGradGradGradGrad

                          Input orientation:                          
 ---------------------------------------------------------------------
 Center     Atomic      Atomic             Coordinates (Angstroms)
 Number     Number       Type             X           Y           Z
 ---------------------------------------------------------------------
      1          6           0       -3.619092   -4.429351    0.000000
      2          1           0       -2.549793   -4.390643    0.000000
      3          1           0       -4.118346   -5.375737    0.000000
      4          6           0       -4.343250   -3.283855    0.000000
      5          1           0       -5.412549   -3.322563    0.000000
      6          6           0       -4.217474   -1.748999    0.000000
      7          1           0       -5.098535   -1.141849    0.000000
      8          6           0       -3.535231   -0.578055    0.000000
      9          1           0       -4.062874    0.352802    0.000000
     10          6           0       -1.995258   -0.587205    0.000000
     11          1           0       -1.853878    0.473414    0.000000
     12          6           0       -0.919807   -1.411809    0.000000
     13          1           0       -0.340265   -0.512348    0.000000
     14          6           0       -0.213036   -2.780047    0.000000
     15          1           0        0.792009   -2.412917    0.000000
     16          6           0       -0.444169   -4.115391    0.000000
     17          1           0       -1.447015   -4.488485    0.000000
     18          1           0        0.379011   -4.798966    0.000000
 ---------------------------------------------------------------------
                    Distance matrix (angstroms):
                    1          2          3          4          5
     1  C    0.000000
     2  H    1.070000   0.000000
     3  H    1.070000   1.852234   0.000000
     4  C    1.355200   2.107479   2.103938   0.000000
     5  H    2.107479   3.055514   2.427032   1.070000   0.000000
     6  C    2.746334   3.124011   3.628092   1.540000   1.975932
     7  H    3.605055   4.129255   4.345869   2.271265   2.203207
     8  C    3.852209   3.937882   4.832988   2.823871   3.325154
     9  H    4.802700   4.978923   5.728807   3.647448   3.915346
    10  C    4.171202   3.843650   5.238086   3.575610   4.377221
    11  H    5.210863   4.913588   6.272191   4.507110   5.203228
    12  C    4.048666   3.395630   5.093464   3.901860   4.882183
    13  H    5.108192   4.463539   6.158445   4.868792   5.798740
    14  C    3.784366   2.838037   4.689249   4.160828   5.227740
    15  H    4.850137   3.883174   5.734971   5.208591   6.270885
    16  C    3.190409   2.123538   3.884334   3.986763   5.031240
    17  H    2.172882   1.107109   2.814822   3.136767   4.133380
    18  H    4.015152   2.957130   4.534191   4.959366   5.976783
                    6          7          8          9         10
     6  C    0.000000
     7  H    1.070000   0.000000
     8  C    1.355200   1.661862   0.000000
     9  H    2.107479   1.818399   1.070000   0.000000
    10  C    2.507591   3.152453   1.540000   2.271265   0.000000
    11  H    3.244335   3.624483   1.983062   2.212286   1.070000
    12  C    3.314861   4.187439   2.745102   3.604541   1.355200
    13  H    4.069651   4.799730   3.195642   3.821819   1.656686
    14  C    4.135044   5.152844   3.985693   4.963465   2.825752
    15  H    5.053288   6.026121   4.700184   5.587404   3.331979
    16  C    4.453947   5.523140   4.697596   5.749762   3.854086
    17  H    3.896181   4.953138   4.433070   5.502797   3.939614
    18  H    5.516337   6.586199   5.756508   6.802282   4.834882
                   11         12         13         14         15
    11  H    0.000000
    12  C    2.103938   0.000000
    13  H    1.806309   1.070000   0.000000
    14  C    3.643812   1.540000   2.271265   0.000000
    15  H    3.915562   1.983062   2.212286   1.070000   0.000000
    16  C    4.800459   2.745102   3.604541   1.355200   2.103938
    17  H    4.978552   3.121520   4.127295   2.107479   3.053066
    18  H    5.725712   3.627638   4.346545   2.103938   2.421527
                   16         17         18
    16  C    0.000000
    17  H    1.070000   0.000000
    18  H    1.070000   1.852234   0.000000
 Stoichiometry    C8H10
 Framework group  CS[SG(C8H10)]
 Deg. of freedom    33
 Full point group                 CS      NOp   2
 Largest Abelian subgroup         CS      NOp   2
 Largest concise Abelian subgroup C1      NOp   1
                         Standard orientation:                         
 ---------------------------------------------------------------------
 Center     Atomic      Atomic             Coordinates (Angstroms)
 Number     Number       Type             X           Y           Z
 ---------------------------------------------------------------------
      1          6           0        1.015058   -2.135980    0.000000
      2          1           0        1.575618   -1.224568    0.000000
      3          1           0        1.525948   -3.076135    0.000000
      4          6           0       -0.339756   -2.103663    0.000000
      5          1           0       -0.900316   -3.015075    0.000000
      6          6           0       -1.547457   -1.148122    0.000000
      7          1           0       -2.541199   -1.544829    0.000000
      8          6           0       -2.143800    0.068818    0.000000
      9          1           0       -3.211034    0.145702    0.000000
     10          6           0       -1.282486    1.345430    0.000000
     11          1           0       -2.086839    2.051062    0.000000
     12          6           0        0.000000    1.783377    0.000000
     13          1           0       -0.427326    2.764342    0.000000
     14          6           0        1.530559    1.613111    0.000000
     15          1           0        1.782161    2.653109    0.000000
     16          6           0        2.513805    0.680484    0.000000
     17          1           0        2.268385   -0.360991    0.000000
     18          1           0        3.539066    0.986652    0.000000
 ---------------------------------------------------------------------
 Rotational constants (GHZ):      2.1681211      1.6872718      0.9488552
 Standard basis: 6-31G(d) (6D, 7F)
 There are   108 symmetry adapted basis functions of A'  symmetry.
 There are    32 symmetry adapted basis functions of A"  symmetry.
 Integral buffers will be    131072 words long.
 Raffenetti 2 integral format.
 Two-electron integral symmetry is turned on.
   140 basis functions,   264 primitive gaussians,   140 cartesian basis functions
    29 alpha electrons       29 beta electrons
       nuclear repulsion energy       312.5065579467 Hartrees.
 NAtoms=   18 NActive=   18 NUniq=   18 SFac= 1.00D+00 NAtFMM=   60 NAOKFM=F Big=F
 One-electron integrals computed using PRISM.
 NBasis=   140 RedAO= T  NBF=   108    32
 NBsUse=   140 1.00D-06 NBFU=   108    32
 Harris functional with IExCor=  402 diagonalized for initial guess.
 ExpMin= 1.61D-01 ExpMax= 3.05D+03 ExpMxC= 4.57D+02 IAcc=1 IRadAn=         1 AccDes= 0.00D+00
 HarFok:  IExCor=  402 AccDes= 0.00D+00 IRadAn=         1 IDoV= 1
 ScaDFX=  1.000000  1.000000  1.000000  1.000000
 FoFCou: FMM=F IPFlag=           0 FMFlag=      100000 FMFlg1=           0
         NFxFlg=           0 DoJE=T BraDBF=F KetDBF=T FulRan=T
         Omega=  0.000000  0.000000  1.000000  0.000000  0.000000 ICntrl=     500 IOpCl=  0
         NMat0=    1 NMatS0=    1 NMatT0=    0 NMatD0=    1 NMtDS0=    0 NMtDT0=    0
         I1Cent=           4 NGrid=           0.
 Petite list used in FoFCou.
 Initial guess orbital symmetries:
       Occupied  (A') (A') (A') (A') (A') (A') (A') (A') (A') (A')
                 (A') (A') (A') (A') (A') (A') (A') (A') (A') (A')
                 (A') (A') (A') (A') (A") (A") (A') (A") (A")
       Virtual   (A") (A") (A") (A") (A') (A') (A') (A') (A') (A')
                 (A') (A') (A') (A') (A') (A') (A') (A') (A') (A')
                 (A') (A') (A") (A') (A") (A") (A') (A') (A") (A')
                 (A") (A') (A') (A') (A") (A') (A') (A") (A') (A')
                 (A") (A') (A') (A') (A') (A') (A') (A') (A') (A')
                 (A') (A') (A') (A') (A') (A') (A') (A') (A") (A')
                 (A') (A") (A') (A") (A") (A") (A") (A") (A') (A')
                 (A') (A") (A") (A') (A') (A') (A") (A") (A') (A')
                 (A') (A') (A') (A") (A') (A') (A") (A') (A') (A")
                 (A') (A') (A') (A') (A') (A") (A') (A") (A') (A')
                 (A') (A') (A') (A') (A') (A') (A') (A') (A') (A')
                 (A')
 The electronic state of the initial guess is 1-A'.
 Requested convergence on RMS density matrix=1.00D-08 within 128 cycles.
 Requested convergence on MAX density matrix=1.00D-06.
 Requested convergence on             energy=1.00D-06.
 No special actions if energy rises.
 Integral accuracy reduced to 1.0D-05 until final iterations.
 Initial convergence to 1.0D-05 achieved.  Increase integral accuracy.
 SCF Done:  E(RB3LYP) =  -310.613743968     A.U. after   14 cycles
             Convg  =    0.5969D-08             -V/T =  2.0097

 **********************************************************************

            Population analysis using the SCF density.

 **********************************************************************

 Orbital symmetries:
       Occupied  (A') (A') (A') (A') (A') (A') (A') (A') (A') (A')
                 (A') (A') (A') (A') (A') (A') (A') (A') (A') (A')
                 (A') (A') (A') (A") (A') (A") (A') (A") (A")
       Virtual   (A") (A") (A') (A") (A') (A') (A") (A') (A') (A')
                 (A') (A') (A') (A') (A') (A') (A') (A') (A') (A')
                 (A') (A') (A") (A') (A") (A") (A') (A') (A") (A')
                 (A") (A') (A') (A') (A") (A') (A') (A") (A") (A')
                 (A') (A') (A') (A') (A') (A') (A') (A') (A') (A')
                 (A') (A') (A') (A') (A') (A') (A') (A') (A') (A")
                 (A') (A') (A") (A") (A") (A") (A") (A') (A") (A')
                 (A') (A") (A") (A') (A') (A') (A") (A") (A') (A')
                 (A') (A') (A') (A") (A') (A') (A") (A') (A') (A")
                 (A') (A') (A') (A') (A") (A') (A") (A') (A') (A')
                 (A') (A') (A') (A') (A') (A') (A') (A') (A') (A')
                 (A')
 The electronic state is 1-A'.
 Alpha  occ. eigenvalues --  -10.21118 -10.20960 -10.19639 -10.19576 -10.19382
 Alpha  occ. eigenvalues --  -10.19369 -10.18999 -10.18766  -0.81060  -0.78309
 Alpha  occ. eigenvalues --   -0.76592  -0.73228  -0.65321  -0.60381  -0.57421
 Alpha  occ. eigenvalues --   -0.50449  -0.48422  -0.46620  -0.45889  -0.44351
 Alpha  occ. eigenvalues --   -0.39826  -0.37116  -0.36879  -0.32903  -0.31896
 Alpha  occ. eigenvalues --   -0.29959  -0.26619  -0.26468  -0.21151
 Alpha virt. eigenvalues --   -0.06453  -0.00073   0.07104   0.07237   0.10803
 Alpha virt. eigenvalues --    0.11525   0.13883   0.14063   0.14703   0.16704
 Alpha virt. eigenvalues --    0.18818   0.20037   0.21826   0.25110   0.25970
 Alpha virt. eigenvalues --    0.30788   0.31823   0.34283   0.37445   0.45940
 Alpha virt. eigenvalues --    0.48855   0.49879   0.50836   0.52161   0.55517
 Alpha virt. eigenvalues --    0.56256   0.60853   0.62014   0.62284   0.63758
 Alpha virt. eigenvalues --    0.64241   0.65057   0.66119   0.68109   0.68488
 Alpha virt. eigenvalues --    0.71622   0.71782   0.72076   0.77924   0.80501
 Alpha virt. eigenvalues --    0.81601   0.86517   0.88182   0.88830   0.90345
 Alpha virt. eigenvalues --    0.91663   0.92228   0.93240   0.97777   0.99277
 Alpha virt. eigenvalues --    1.03228   1.05047   1.07365   1.08503   1.11799
 Alpha virt. eigenvalues --    1.13087   1.16326   1.20522   1.25198   1.27438
 Alpha virt. eigenvalues --    1.29310   1.34245   1.35395   1.45849   1.49819
 Alpha virt. eigenvalues --    1.52037   1.55020   1.56008   1.58259   1.59128
 Alpha virt. eigenvalues --    1.65511   1.68393   1.72128   1.76561   1.88429
 Alpha virt. eigenvalues --    1.92588   1.94774   1.97735   1.98283   2.00480
 Alpha virt. eigenvalues --    2.03108   2.04700   2.06347   2.07100   2.11855
 Alpha virt. eigenvalues --    2.19140   2.20415   2.22893   2.28816   2.30937
 Alpha virt. eigenvalues --    2.36494   2.38204   2.46771   2.53172   2.55732
 Alpha virt. eigenvalues --    2.56008   2.66777   2.67057   2.74667   2.85824
 Alpha virt. eigenvalues --    2.95090   3.14536   3.29701   3.99798   4.02829
 Alpha virt. eigenvalues --    4.10567   4.20051   4.22806   4.36311   4.61894
 Alpha virt. eigenvalues --    4.77355
          Condensed to atoms (all electrons):
              1          2          3          4          5          6
     1  C    5.136523   0.339236   0.368660   0.628347  -0.064348  -0.042922
     2  H    0.339236   0.590857  -0.053661  -0.016115   0.005443  -0.005679
     3  H    0.368660  -0.053661   0.549738  -0.014679  -0.008915   0.003958
     4  C    0.628347  -0.016115  -0.014679   4.818394   0.361489   0.382848
     5  H   -0.064348   0.005443  -0.008915   0.361489   0.613148  -0.040121
     6  C   -0.042922  -0.005679   0.003958   0.382848  -0.040121   4.897630
     7  H    0.005087  -0.000187  -0.000091  -0.031712  -0.014008   0.335087
     8  C   -0.004834   0.000799  -0.000013  -0.054473   0.008610   0.604473
     9  H   -0.000059  -0.000001   0.000001   0.004167  -0.000199  -0.033720
    10  C    0.000711  -0.000476  -0.000002  -0.003809  -0.000122  -0.047647
    11  H   -0.000021   0.000012   0.000000   0.000082   0.000004   0.009859
    12  C    0.000579   0.001148  -0.000001   0.000479   0.000014  -0.010825
    13  H    0.000015  -0.000020   0.000000  -0.000009   0.000000  -0.000174
    14  C   -0.000176   0.003382   0.000019  -0.000215   0.000008   0.000688
    15  H   -0.000059  -0.000329   0.000001   0.000006   0.000000   0.000005
    16  C   -0.037293  -0.016119   0.000580   0.001580  -0.000070  -0.000019
    17  H   -0.034297   0.039182   0.003056  -0.001721   0.000023   0.000100
    18  H    0.001365  -0.001100  -0.000031  -0.000004   0.000000   0.000002
              7          8          9         10         11         12
     1  C    0.005087  -0.004834  -0.000059   0.000711  -0.000021   0.000579
     2  H   -0.000187   0.000799  -0.000001  -0.000476   0.000012   0.001148
     3  H   -0.000091  -0.000013   0.000001  -0.000002   0.000000  -0.000001
     4  C   -0.031712  -0.054473   0.004167  -0.003809   0.000082   0.000479
     5  H   -0.014008   0.008610  -0.000199  -0.000122   0.000004   0.000014
     6  C    0.335087   0.604473  -0.033720  -0.047647   0.009859  -0.010825
     7  H    0.696151  -0.095543  -0.026674   0.016068  -0.001561   0.000358
     8  C   -0.095543   5.143072   0.357001   0.395676  -0.074270  -0.032985
     9  H   -0.026674   0.357001   0.580492  -0.034964  -0.001169   0.003714
    10  C    0.016068   0.395676  -0.034964   5.097037   0.356322   0.575961
    11  H   -0.001561  -0.074270  -0.001169   0.356322   0.673119  -0.047950
    12  C    0.000358  -0.032985   0.003714   0.575961  -0.047950   4.952333
    13  H    0.000016   0.012323  -0.000524  -0.067690  -0.035926   0.346893
    14  C   -0.000011  -0.002059  -0.000012  -0.049761   0.004893   0.377119
    15  H    0.000000  -0.000045   0.000001   0.008189  -0.000221  -0.039053
    16  C    0.000005   0.000222  -0.000001  -0.004525  -0.000095  -0.039747
    17  H    0.000003  -0.000042   0.000001   0.001016  -0.000004  -0.005497
    18  H    0.000000  -0.000002   0.000000  -0.000008   0.000002   0.003418
             13         14         15         16         17         18
     1  C    0.000015  -0.000176  -0.000059  -0.037293  -0.034297   0.001365
     2  H   -0.000020   0.003382  -0.000329  -0.016119   0.039182  -0.001100
     3  H    0.000000   0.000019   0.000001   0.000580   0.003056  -0.000031
     4  C   -0.000009  -0.000215   0.000006   0.001580  -0.001721  -0.000004
     5  H    0.000000   0.000008   0.000000  -0.000070   0.000023   0.000000
     6  C   -0.000174   0.000688   0.000005  -0.000019   0.000100   0.000002
     7  H    0.000016  -0.000011   0.000000   0.000005   0.000003   0.000000
     8  C    0.012323  -0.002059  -0.000045   0.000222  -0.000042  -0.000002
     9  H   -0.000524  -0.000012   0.000001  -0.000001   0.000001   0.000000
    10  C   -0.067690  -0.049761   0.008189  -0.004525   0.001016  -0.000008
    11  H   -0.035926   0.004893  -0.000221  -0.000095  -0.000004   0.000002
    12  C    0.346893   0.377119  -0.039053  -0.039747  -0.005497   0.003418
    13  H    0.644624  -0.036194  -0.012192   0.004396  -0.000092  -0.000093
    14  C   -0.036194   4.809064   0.357012   0.649498  -0.046061  -0.017350
    15  H   -0.012192   0.357012   0.609872  -0.059820   0.007245  -0.008543
    16  C    0.004396   0.649498  -0.059820   5.160426   0.332812   0.356733
    17  H   -0.000092  -0.046061   0.007245   0.332812   0.551105  -0.030084
    18  H   -0.000093  -0.017350  -0.008543   0.356733  -0.030084   0.542508
 Mulliken atomic charges:
              1
     1  C   -0.296514
     2  H    0.113631
     3  H    0.151381
     4  C   -0.074656
     5  H    0.139044
     6  C   -0.053544
     7  H    0.117011
     8  C   -0.257911
     9  H    0.151948
    10  C   -0.241976
    11  H    0.116927
    12  C   -0.085956
    13  H    0.144646
    14  C   -0.049842
    15  H    0.137933
    16  C   -0.348564
    17  H    0.183256
    18  H    0.153187
 Sum of Mulliken atomic charges =   0.00000
 Mulliken charges with hydrogens summed into heavy atoms:
              1
     1  C   -0.031503
     4  C    0.064388
     6  C    0.063467
     8  C   -0.105963
    10  C   -0.125049
    12  C    0.058690
    14  C    0.088090
    16  C   -0.012121
 Sum of Mulliken charges with hydrogens summed into heavy atoms =   0.00000
 Electronic spatial extent (au):  <R**2>=           1214.3123
 Charge=              0.0000 electrons
 Dipole moment (field-independent basis, Debye):
    X=             -0.0771    Y=             -0.2137    Z=              0.0000  Tot=              0.2272
 Quadrupole moment (field-independent basis, Debye-Ang):
   XX=            -41.0005   YY=            -44.2519   ZZ=            -53.8464
   XY=             -0.9272   XZ=              0.0000   YZ=              0.0000
 Traceless Quadrupole moment (field-independent basis, Debye-Ang):
   XX=              5.3658   YY=              2.1144   ZZ=             -7.4801
   XY=             -0.9272   XZ=              0.0000   YZ=              0.0000
 Octapole moment (field-independent basis, Debye-Ang**2):
  XXX=             -3.7628  YYY=             -1.9989  ZZZ=              0.0000  XYY=              2.4064
  XXY=              0.2753  XXZ=              0.0000  XZZ=             -0.3102  YZZ=             -0.1071
  YYZ=              0.0000  XYZ=              0.0000
 Hexadecapole moment (field-independent basis, Debye-Ang**3):
 XXXX=           -728.8357 YYYY=           -745.5138 ZZZZ=            -56.1358 XXXY=            -39.5866
 XXXZ=              0.0000 YYYX=            -49.9441 YYYZ=              0.0000 ZZZX=              0.0000
 ZZZY=              0.0000 XXYY=           -253.0283 XXZZ=           -160.9454 YYZZ=           -156.6889
 XXYZ=              0.0000 YYXZ=              0.0000 ZZXY=            -16.5332
 N-N= 3.125065579467D+02 E-N=-1.343138917494D+03  KE= 3.076384395957D+02
 Symmetry A'   KE= 2.992177191704D+02
 Symmetry A"   KE= 8.420720425297D+00
 Calling FoFJK, ICntrl=      2127 FMM=F ISym2X=1 I1Cent= 0 IOpClX= 0 NMat=1 NMatS=1 NMatT=0.
 ***** Axes restored to original set *****
 -------------------------------------------------------------------
 Center     Atomic                   Forces (Hartrees/Bohr)
 Number     Number              X              Y              Z
 -------------------------------------------------------------------
      1        6          -0.015311460    0.043149123    0.000000000
      2        1          -0.029556962   -0.002675039    0.000000000
      3        1          -0.004966643   -0.009137831    0.000000000
      4        6          -0.004908104    0.038392957    0.000000000
      5        1          -0.014087942   -0.022157069    0.000000000
      6        6          -0.015646426    0.018177835    0.000000000
      7        1          -0.056125364   -0.042300016    0.000000000
      8        6           0.107032203   -0.085034945    0.000000000
      9        1           0.001086963    0.011497683    0.000000000
     10        6          -0.094974183    0.006467912    0.000000000
     11        1           0.029195904    0.015513423    0.000000000
     12        6          -0.010989748    0.003245048    0.000000000
     13        1           0.060734961   -0.020246336    0.000000000
     14        6          -0.013148940    0.034820769    0.000000000
     15        1           0.020714544   -0.013736378    0.000000000
     16        6           0.001141938    0.040083158    0.000000000
     17        1           0.031663115   -0.009563562    0.000000000
     18        1           0.008146144   -0.006496732    0.000000000
 -------------------------------------------------------------------
 Cartesian Forces:  Max     0.107032203 RMS     0.030063575

 GradGradGradGradGradGradGradGradGradGradGradGradGradGradGradGradGradGrad
 Berny optimization.
 Internal  Forces:  Max     0.299310187 RMS     0.066803646
 Search for a local minimum.
 Step number   1 out of a maximum of   79
 All quantities printed in internal units (Hartrees-Bohrs-Radians)
 Mixed Optimization -- RFO/linear search
 Second derivative matrix not updated -- first step.
 ITU=  0
     Eigenvalues ---    0.00237   0.00237   0.00237   0.01289   0.01290
     Eigenvalues ---    0.01463   0.01623   0.01623   0.01628   0.02681
     Eigenvalues ---    0.02681   0.02681   0.02681   0.02681   0.02681
     Eigenvalues ---    0.16000   0.16000   0.16000   0.16000   0.16000
     Eigenvalues ---    0.16000   0.16000   0.16000   0.16000   0.16000
     Eigenvalues ---    0.22000   0.22000   0.22000   0.22000   0.22000
     Eigenvalues ---    0.22000   0.28519   0.28519   0.28519   0.37230
     Eigenvalues ---    0.37230   0.37230   0.37230   0.37230   0.37230
     Eigenvalues ---    0.37230   0.37230   0.37230   0.37230   0.53930
     Eigenvalues ---    0.53930   0.53930   0.53930
 RFO step:  Lambda=-4.53908557D-01 EMin= 2.36824102D-03
 Linear search not attempted -- first point.
 Maximum step size (   0.300) exceeded in Quadratic search.
    -- Step size scaled by   0.366
 Iteration  1 RMS(Cart)=  0.38612477 RMS(Int)=  0.01667281
 Iteration  2 RMS(Cart)=  0.16136895 RMS(Int)=  0.00232714
 Iteration  3 RMS(Cart)=  0.00502242 RMS(Int)=  0.00000068
 Iteration  4 RMS(Cart)=  0.00000432 RMS(Int)=  0.00000000
 Iteration  5 RMS(Cart)=  0.00000000 RMS(Int)=  0.00000000
 ClnCor:  largest displacement from symmetrization is 5.43D-12 for atom    17.
 Variable       Old X    -DE/DX   Delta X   Delta X   Delta X     New X
                                 (Linear)    (Quad)   (Total)
    R1        2.02201  -0.02964   0.00000  -0.01313  -0.01313   2.00888
    R2        2.02201   0.01040   0.00000   0.00461   0.00461   2.02661
    R3        2.56096  -0.05312   0.00000  -0.01957  -0.01957   2.54139
    R4        2.02201   0.01488   0.00000   0.00659   0.00659   2.02860
    R5        2.91018  -0.04179   0.00000  -0.02069  -0.02069   2.88949
    R6        2.02201   0.02221   0.00000   0.00984   0.00984   2.03185
    R7        2.56096   0.05052   0.00000   0.01861   0.01861   2.57957
    R8        2.02201   0.00947   0.00000   0.00419   0.00419   2.02620
    R9        2.91018   0.03219   0.00000   0.01594   0.01594   2.92611
   R10        2.02201   0.01924   0.00000   0.00852   0.00852   2.03053
   R11        2.56096   0.06088   0.00000   0.02243   0.02243   2.58339
   R12        2.02201   0.01588   0.00000   0.00703   0.00703   2.02904
   R13        2.91018  -0.01781   0.00000  -0.00882  -0.00882   2.90136
   R14        2.02201   0.01474   0.00000   0.00653   0.00653   2.02854
   R15        2.56096  -0.03065   0.00000  -0.01129  -0.01129   2.54966
   R16        2.02201  -0.02634   0.00000  -0.01167  -0.01167   2.01034
   R17        2.02201   0.01042   0.00000   0.00461   0.00461   2.02662
    A1        2.09241  -0.00099   0.00000  -0.00059  -0.00059   2.09182
    A2        2.09836   0.00225   0.00000   0.00134   0.00134   2.09970
    A3        2.09241  -0.00126   0.00000  -0.00075  -0.00075   2.09167
    A4        2.09836  -0.03742   0.00000  -0.02148  -0.02148   2.07688
    A5        2.49609   0.03109   0.00000   0.01688   0.01688   2.51297
    A6        1.68874   0.00632   0.00000   0.00459   0.00459   1.69334
    A7        2.09241  -0.12352   0.00000  -0.07065  -0.07065   2.02177
    A8        2.69580   0.11221   0.00000   0.06093   0.06093   2.75673
    A9        1.49497   0.01130   0.00000   0.00972   0.00972   1.50469
   A10        2.09836  -0.14297   0.00000  -0.07728  -0.07728   2.02108
   A11        2.09241   0.29931   0.00000   0.16253   0.16253   2.25494
   A12        2.09241  -0.15634   0.00000  -0.08525  -0.08525   2.00716
   A13        1.69737  -0.08499   0.00000  -0.04471  -0.04471   1.65266
   A14        2.49340   0.22436   0.00000   0.12183   0.12183   2.61523
   A15        2.09241  -0.13937   0.00000  -0.07712  -0.07712   2.01529
   A16        1.48903  -0.00937   0.00000  -0.00176  -0.00176   1.48728
   A17        2.70174   0.14414   0.00000   0.07827   0.07827   2.78001
   A18        2.09241  -0.13477   0.00000  -0.07651  -0.07651   2.01590
   A19        1.69737  -0.01759   0.00000  -0.00848  -0.00848   1.68889
   A20        2.49340   0.07565   0.00000   0.04108   0.04108   2.53447
   A21        2.09241  -0.05805   0.00000  -0.03260  -0.03260   2.05982
   A22        2.09836   0.02710   0.00000   0.01616   0.01616   2.11451
   A23        2.09241  -0.01376   0.00000  -0.00820  -0.00820   2.08421
   A24        2.09241  -0.01334   0.00000  -0.00795  -0.00795   2.08446
    D1        3.14159   0.00000   0.00000   0.00000   0.00000   3.14159
    D2        0.00000   0.00000   0.00000   0.00000   0.00000   0.00000
    D3        0.00000   0.00000   0.00000   0.00000   0.00000   0.00000
    D4        3.14159   0.00000   0.00000   0.00000   0.00000   3.14159
    D5        3.14159   0.00000   0.00000   0.00000   0.00000   3.14159
    D6        0.00000   0.00000   0.00000   0.00000   0.00000   0.00000
    D7        0.00000   0.00000   0.00000   0.00000   0.00000   0.00000
    D8        3.14159   0.00000   0.00000   0.00000   0.00000   3.14159
    D9        3.14159   0.00000   0.00000   0.00000   0.00000   3.14159
   D10        0.00000   0.00000   0.00000   0.00000   0.00000   0.00000
   D11        0.00000   0.00000   0.00000   0.00000   0.00000   0.00000
   D12        3.14159   0.00000   0.00000   0.00000   0.00000   3.14159
   D13        3.14159   0.00000   0.00000   0.00000   0.00000   3.14159
   D14        0.00000   0.00000   0.00000   0.00000   0.00000   0.00000
   D15        0.00000   0.00000   0.00000   0.00000   0.00000   0.00000
   D16        3.14159   0.00000   0.00000   0.00000   0.00000   3.14159
   D17        3.14159   0.00000   0.00000   0.00000   0.00000   3.14159
   D18        0.00000   0.00000   0.00000   0.00000   0.00000   0.00000
   D19        0.00000   0.00000   0.00000   0.00000   0.00000   0.00000
   D20        3.14159   0.00000   0.00000   0.00000   0.00000   3.14159
   D21        3.14159   0.00000   0.00000   0.00000   0.00000   3.14159
   D22        0.00000   0.00000   0.00000   0.00000   0.00000   0.00000
   D23        0.00000   0.00000   0.00000   0.00000   0.00000   0.00000
   D24        3.14159   0.00000   0.00000   0.00000   0.00000   3.14159
   D25        0.00000   0.00000   0.00000   0.00000   0.00000   0.00000
   D26        3.14159   0.00000   0.00000   0.00000   0.00000   3.14159
   D27        3.14159   0.00000   0.00000   0.00000   0.00000   3.14159
   D28        0.00000   0.00000   0.00000   0.00000   0.00000   0.00000
         Item               Value     Threshold  Converged?
 Maximum Force            0.299310     0.000450     NO 
 RMS     Force            0.066804     0.000300     NO 
 Maximum Displacement     1.842986     0.001800     NO 
 RMS     Displacement     0.541012     0.001200     NO 
 Predicted change in Energy=-1.561355D-01
 GradGradGradGradGradGradGradGradGradGradGradGradGradGradGradGradGradGrad

                          Input orientation:                          
 ---------------------------------------------------------------------
 Center     Atomic      Atomic             Coordinates (Angstroms)
 Number     Number       Type             X           Y           Z
 ---------------------------------------------------------------------
      1          6           0       -4.383443   -4.543254    0.000000
      2          1           0       -3.342159   -4.757289    0.000000
      3          1           0       -5.093612   -5.346859    0.000000
      4          6           0       -4.814362   -3.269318    0.000000
      5          1           0       -5.870524   -3.077230    0.000000
      6          6           0       -4.358920   -1.809672    0.000000
      7          1           0       -5.143125   -1.074083    0.000000
      8          6           0       -3.492846   -0.754553    0.000000
      9          1           0       -3.942937    0.218623    0.000000
     10          6           0       -1.944421   -0.759461    0.000000
     11          1           0       -1.853157    0.311164    0.000000
     12          6           0       -0.764584   -1.450014    0.000000
     13          1           0       -0.301408   -0.481332    0.000000
     14          6           0        0.200433   -2.644164    0.000000
     15          1           0        1.109025   -2.072528    0.000000
     16          6           0        0.298238   -3.989838    0.000000
     17          1           0       -0.569888   -4.604724    0.000000
     18          1           0        1.268136   -4.447472    0.000000
 ---------------------------------------------------------------------
                    Distance matrix (angstroms):
                    1          2          3          4          5
     1  C    0.000000
     2  H    1.063054   0.000000
     3  H    1.072437   1.848021   0.000000
     4  C    1.344843   2.093189   2.096225   0.000000
     5  H    2.088213   3.035659   2.398918   1.073488   0.000000
     6  C    2.733692   3.118052   3.612682   1.529050   1.972726
     7  H    3.551375   4.099937   4.273063   2.219716   2.131128
     8  C    3.891968   4.005571   4.863305   2.840853   3.323880
     9  H    4.782208   5.012049   5.683190   3.595151   3.818145
    10  C    4.501768   4.235127   5.564317   3.812603   4.559203
    11  H    5.474278   5.282646   6.520259   4.646352   5.255516
    12  C    4.760701   4.193085   5.824594   4.439658   5.358960
    13  H    5.758665   5.246901   6.829245   5.304679   6.144407
    14  C    4.961700   4.124955   5.944029   5.053611   6.086383
    15  H    6.022599   5.198171   7.013840   6.043080   7.051491
    16  C    4.714277   3.720413   5.559996   5.163122   6.235902
    17  H    3.814051   2.776466   4.584196   4.449592   5.516337
    18  H    5.652392   4.620694   6.425009   6.195549   7.268977
                    6          7          8          9         10
     6  C    0.000000
     7  H    1.075206   0.000000
     8  C    1.365049   1.680928   0.000000
     9  H    2.070512   1.763956   1.072219   0.000000
    10  C    2.633011   3.214140   1.548433   2.225020   0.000000
    11  H    3.282803   3.569706   1.955590   2.091828   1.074508
    12  C    3.612286   4.394650   2.815507   3.589746   1.367070
    13  H    4.269414   4.877866   3.203112   3.708190   1.666388
    14  C    4.635092   5.569450   4.148607   5.036176   2.855259
    15  H    5.474260   6.331372   4.786886   5.547224   3.323805
    16  C    5.142203   6.173335   4.983913   5.974840   3.932538
    17  H    4.708406   5.777536   4.833994   5.885757   4.083551
    18  H    6.214640   7.244586   6.025330   6.994836   4.891007
                   11         12         13         14         15
    11  H    0.000000
    12  C    2.070444   0.000000
    13  H    1.742405   1.073721   0.000000
    14  C    3.598777   1.535335   2.220290   0.000000
    15  H    3.802172   1.974319   2.126318   1.073456   0.000000
    16  C    4.809067   2.753234   3.559381   1.349224   2.081695
    17  H    5.080624   3.160712   4.132123   2.106464   3.038217
    18  H    5.690965   3.621699   4.265411   2.095688   2.380267
                   16         17         18
    16  C    0.000000
    17  H    1.063826   0.000000
    18  H    1.072442   1.844739   0.000000
 Stoichiometry    C8H10
 Framework group  CS[SG(C8H10)]
 Deg. of freedom    33
 Full point group                 CS      NOp   2
 Largest Abelian subgroup         CS      NOp   2
 Largest concise Abelian subgroup C1      NOp   1
                         Standard orientation:                         
 ---------------------------------------------------------------------
 Center     Atomic      Atomic             Coordinates (Angstroms)
 Number     Number       Type             X           Y           Z
 ---------------------------------------------------------------------
      1          6           0       -1.350224   -2.567279    0.000000
      2          1           0       -0.289430   -2.497995    0.000000
      3          1           0       -1.822296   -3.530228    0.000000
      4          6           0       -2.103043   -1.452888    0.000000
      5          1           0       -3.172373   -1.547275    0.000000
      6          6           0       -2.050297    0.075252    0.000000
      7          1           0       -3.001267    0.576973    0.000000
      8          6           0       -1.494471    1.322015    0.000000
      9          1           0       -2.186152    2.141302    0.000000
     10          6           0        0.000000    1.727230    0.000000
     11          1           0       -0.195442    2.783815    0.000000
     12          6           0        1.320562    1.373683    0.000000
     13          1           0        1.510750    2.430426    0.000000
     14          6           0        2.567297    0.477634    0.000000
     15          1           0        3.292126    1.269423    0.000000
     16          6           0        3.017881   -0.794128    0.000000
     17          1           0        2.343525   -1.616910    0.000000
     18          1           0        4.074330   -0.978649    0.000000
 ---------------------------------------------------------------------
 Rotational constants (GHZ):      2.3131023      1.1346060      0.7612186
 Standard basis: 6-31G(d) (6D, 7F)
 There are   108 symmetry adapted basis functions of A'  symmetry.
 There are    32 symmetry adapted basis functions of A"  symmetry.
 Integral buffers will be    131072 words long.
 Raffenetti 2 integral format.
 Two-electron integral symmetry is turned on.
   140 basis functions,   264 primitive gaussians,   140 cartesian basis functions
    29 alpha electrons       29 beta electrons
       nuclear repulsion energy       298.0647292347 Hartrees.
 NAtoms=   18 NActive=   18 NUniq=   18 SFac= 1.00D+00 NAtFMM=   60 NAOKFM=F Big=F
 One-electron integrals computed using PRISM.
 NBasis=   140 RedAO= T  NBF=   108    32
 NBsUse=   140 1.00D-06 NBFU=   108    32
 Initial guess read from the read-write file.
 B after Tr=     0.000000    0.000000    0.000000
         Rot=    1.000000    0.000000    0.000000    0.000000 Ang=   0.00 deg.
 Initial guess orbital symmetries:
       Occupied  (A') (A') (A') (A') (A') (A') (A') (A') (A') (A')
                 (A') (A') (A') (A') (A') (A') (A') (A') (A') (A')
                 (A') (A') (A') (A") (A') (A") (A') (A") (A")
       Virtual   (A") (A") (A') (A") (A') (A') (A") (A') (A') (A')
                 (A') (A') (A') (A') (A') (A') (A') (A') (A') (A')
                 (A') (A') (A") (A') (A") (A") (A') (A') (A") (A')
                 (A") (A') (A') (A') (A") (A') (A') (A") (A") (A')
                 (A') (A') (A') (A') (A') (A') (A') (A') (A') (A')
                 (A') (A') (A') (A') (A') (A') (A') (A') (A') (A")
                 (A') (A') (A") (A") (A") (A") (A") (A') (A") (A')
                 (A') (A") (A") (A') (A') (A') (A") (A") (A') (A')
                 (A') (A') (A') (A") (A') (A') (A") (A') (A') (A")
                 (A') (A') (A') (A') (A") (A') (A") (A') (A') (A')
                 (A') (A') (A') (A') (A') (A') (A') (A') (A') (A')
                 (A')
 Harris functional with IExCor=  402 diagonalized for initial guess.
 ExpMin= 1.61D-01 ExpMax= 3.05D+03 ExpMxC= 4.57D+02 IAcc=1 IRadAn=         1 AccDes= 0.00D+00
 HarFok:  IExCor=  402 AccDes= 0.00D+00 IRadAn=         1 IDoV= 1
 ScaDFX=  1.000000  1.000000  1.000000  1.000000
 FoFCou: FMM=F IPFlag=           0 FMFlag=      100000 FMFlg1=           0
         NFxFlg=           0 DoJE=T BraDBF=F KetDBF=T FulRan=T
         Omega=  0.000000  0.000000  1.000000  0.000000  0.000000 ICntrl=     500 IOpCl=  0
         NMat0=    1 NMatS0=    1 NMatT0=    0 NMatD0=    1 NMtDS0=    0 NMtDT0=    0
         I1Cent=           4 NGrid=           0.
 Petite list used in FoFCou.
 Requested convergence on RMS density matrix=1.00D-08 within 128 cycles.
 Requested convergence on MAX density matrix=1.00D-06.
 Requested convergence on             energy=1.00D-06.
 No special actions if energy rises.
 Integral accuracy reduced to 1.0D-05 until final iterations.
 Initial convergence to 1.0D-05 achieved.  Increase integral accuracy.
 SCF Done:  E(RB3LYP) =  -310.635544167     A.U. after   15 cycles
             Convg  =    0.5444D-08             -V/T =  2.0103
 Calling FoFJK, ICntrl=      2127 FMM=F ISym2X=1 I1Cent= 0 IOpClX= 0 NMat=1 NMatS=1 NMatT=0.
 ***** Axes restored to original set *****
 -------------------------------------------------------------------
 Center     Atomic                   Forces (Hartrees/Bohr)
 Number     Number              X              Y              Z
 -------------------------------------------------------------------
      1        6           0.005627991    0.031924991    0.000000000
      2        1           0.016428563   -0.008982289    0.000000000
      3        1          -0.004530542   -0.006672648    0.000000000
      4        6          -0.002968729    0.042713514    0.000000000
      5        1          -0.015583468   -0.017820629    0.000000000
      6        6          -0.007626780    0.021868002    0.000000000
      7        1          -0.051884431   -0.031471796    0.000000000
      8        6           0.085767129   -0.086416809    0.000000000
      9        1           0.004991059    0.011635141    0.000000000
     10        6          -0.083219967   -0.002556909    0.000000000
     11        1           0.022265958    0.013502373    0.000000000
     12        6          -0.009489422    0.008228260    0.000000000
     13        1           0.057353788   -0.014802183    0.000000000
     14        6          -0.014639983    0.035277772    0.000000000
     15        1           0.020209974   -0.009323428    0.000000000
     16        6          -0.018013500    0.030831146    0.000000000
     17        1          -0.011586207   -0.013573957    0.000000000
     18        1           0.006898569   -0.004360553    0.000000000
 -------------------------------------------------------------------
 Cartesian Forces:  Max     0.086416809 RMS     0.026511370

 GradGradGradGradGradGradGradGradGradGradGradGradGradGradGradGradGradGrad
 Berny optimization.
 Using GEDIIS/GDIIS optimizer.
 Internal  Forces:  Max     0.096716280 RMS     0.026996133
 Search for a local minimum.
 Step number   2 out of a maximum of   79
 All quantities printed in internal units (Hartrees-Bohrs-Radians)
 Mixed Optimization -- RFO/linear search
 Update second derivatives using D2CorX and points    1    2
 DE= -2.18D-02 DEPred=-1.56D-01 R= 1.40D-01
 Trust test= 1.40D-01 RLast= 3.00D-01 DXMaxT set to 3.00D-01
 ITU=  0  0
 Use linear search instead of GDIIS.
     Eigenvalues ---    0.00237   0.00237   0.00237   0.01333   0.01338
     Eigenvalues ---    0.01467   0.01580   0.01602   0.01613   0.02681
     Eigenvalues ---    0.02681   0.02681   0.02681   0.02681   0.02681
     Eigenvalues ---    0.14971   0.16000   0.16000   0.16000   0.16000
     Eigenvalues ---    0.16000   0.16000   0.16000   0.16000   0.16012
     Eigenvalues ---    0.21125   0.22000   0.22000   0.22000   0.22000
     Eigenvalues ---    0.28235   0.28458   0.28519   0.37019   0.37078
     Eigenvalues ---    0.37230   0.37230   0.37230   0.37230   0.37230
     Eigenvalues ---    0.37230   0.37230   0.37230   0.52761   0.53917
     Eigenvalues ---    0.53930   0.53930   2.31424
 RFO step:  Lambda=-4.06918476D-02 EMin= 2.36824102D-03
 Quartic linear search produced a step of -0.52775.
 Maximum step size (   0.300) exceeded in Quadratic search.
    -- Step size scaled by   0.695
 Iteration  1 RMS(Cart)=  0.27845587 RMS(Int)=  0.01112137
 Iteration  2 RMS(Cart)=  0.03978271 RMS(Int)=  0.00018615
 Iteration  3 RMS(Cart)=  0.00041970 RMS(Int)=  0.00000003
 Iteration  4 RMS(Cart)=  0.00000007 RMS(Int)=  0.00000000
 ClnCor:  largest displacement from symmetrization is 1.09D-10 for atom     1.
 Variable       Old X    -DE/DX   Delta X   Delta X   Delta X     New X
                                 (Linear)    (Quad)   (Total)
    R1        2.00888   0.01790   0.00693   0.00323   0.01015   2.01903
    R2        2.02661   0.00800  -0.00243   0.00998   0.00755   2.03416
    R3        2.54139  -0.00980   0.01033  -0.02434  -0.01401   2.52738
    R4        2.02860   0.01214  -0.00348   0.01483   0.01135   2.03994
    R5        2.88949  -0.03899   0.01092  -0.05244  -0.04152   2.84796
    R6        2.03185   0.01631  -0.00519   0.02072   0.01553   2.04737
    R7        2.57957   0.01401  -0.00982   0.02574   0.01592   2.59549
    R8        2.02620   0.00847  -0.00221   0.01001   0.00779   2.03399
    R9        2.92611  -0.03036  -0.00841  -0.01917  -0.02758   2.89854
   R10        2.03053   0.01534  -0.00450   0.01889   0.01439   2.04492
   R11        2.58339   0.01022  -0.01184   0.02733   0.01550   2.59888
   R12        2.02904   0.01139  -0.00371   0.01460   0.01088   2.03992
   R13        2.90136  -0.04098   0.00465  -0.04638  -0.04172   2.85964
   R14        2.02854   0.01214  -0.00345   0.01477   0.01133   2.03986
   R15        2.54966  -0.01450   0.00596  -0.01895  -0.01299   2.53668
   R16        2.01034   0.01730   0.00616   0.00395   0.01011   2.02045
   R17        2.02662   0.00810  -0.00244   0.01007   0.00763   2.03425
    A1        2.09182  -0.00437   0.00031  -0.00715  -0.00684   2.08499
    A2        2.09970   0.00666  -0.00071   0.01102   0.01031   2.11001
    A3        2.09167  -0.00230   0.00040  -0.00387  -0.00348   2.08819
    A4        2.07688   0.00175   0.01133  -0.01317  -0.00184   2.07504
    A5        2.51297  -0.04472  -0.00891  -0.04652  -0.05543   2.45754
    A6        1.69334   0.04297  -0.00242   0.05969   0.05727   1.75061
    A7        2.02177  -0.02311   0.03728  -0.07648  -0.03920   1.98257
    A8        2.75673  -0.07253  -0.03216  -0.05833  -0.09049   2.66624
    A9        1.50469   0.09564  -0.00513   0.13482   0.12969   1.63438
   A10        2.02108   0.00496   0.04078  -0.03079   0.00999   2.03108
   A11        2.25494   0.00916  -0.08577   0.09422   0.00845   2.26339
   A12        2.00716  -0.01412   0.04499  -0.06344  -0.01845   1.98872
   A13        1.65266   0.04853   0.02359   0.04089   0.06448   1.71715
   A14        2.61523  -0.05435  -0.06429  -0.00484  -0.06913   2.54609
   A15        2.01529   0.00581   0.04070  -0.03605   0.00465   2.01995
   A16        1.48728   0.09672   0.00093   0.13083   0.13176   1.61903
   A17        2.78001  -0.07548  -0.04131  -0.05313  -0.09443   2.68557
   A18        2.01590  -0.02123   0.04038  -0.07770  -0.03732   1.97858
   A19        1.68889   0.04142   0.00447   0.05073   0.05521   1.74410
   A20        2.53447  -0.04500  -0.02168  -0.03452  -0.05620   2.47828
   A21        2.05982   0.00358   0.01720  -0.01621   0.00099   2.06081
   A22        2.11451   0.00519  -0.00853   0.01256   0.00404   2.11855
   A23        2.08421  -0.00158   0.00433  -0.00469  -0.00036   2.08385
   A24        2.08446  -0.00361   0.00420  -0.00788  -0.00368   2.08078
    D1        3.14159   0.00000   0.00000   0.00000   0.00000   3.14159
    D2        0.00000   0.00000   0.00000   0.00000   0.00000   0.00000
    D3        0.00000   0.00000   0.00000   0.00000   0.00000   0.00000
    D4        3.14159   0.00000   0.00000   0.00000   0.00000   3.14159
    D5        3.14159   0.00000   0.00000   0.00000   0.00000   3.14159
    D6        0.00000   0.00000   0.00000   0.00000   0.00000   0.00000
    D7        0.00000   0.00000   0.00000   0.00000   0.00000   0.00000
    D8        3.14159   0.00000   0.00000   0.00000   0.00000   3.14159
    D9        3.14159   0.00000   0.00000   0.00000   0.00000   3.14159
   D10        0.00000   0.00000   0.00000   0.00000   0.00000   0.00000
   D11        0.00000   0.00000   0.00000   0.00000   0.00000   0.00000
   D12        3.14159   0.00000   0.00000   0.00000   0.00000   3.14159
   D13        3.14159   0.00000   0.00000   0.00000   0.00000   3.14159
   D14        0.00000   0.00000   0.00000   0.00000   0.00000   0.00000
   D15        0.00000   0.00000   0.00000   0.00000   0.00000   0.00000
   D16        3.14159   0.00000   0.00000   0.00000   0.00000   3.14159
   D17        3.14159   0.00000   0.00000   0.00000   0.00000   3.14159
   D18        0.00000   0.00000   0.00000   0.00000   0.00000   0.00000
   D19        0.00000   0.00000   0.00000   0.00000   0.00000   0.00000
   D20        3.14159   0.00000   0.00000   0.00000   0.00000   3.14159
   D21        3.14159   0.00000   0.00000   0.00000   0.00000   3.14159
   D22        0.00000   0.00000   0.00000   0.00000   0.00000   0.00000
   D23        0.00000   0.00000   0.00000   0.00000   0.00000   0.00000
   D24        3.14159   0.00000   0.00000   0.00000   0.00000   3.14159
   D25        0.00000   0.00000   0.00000   0.00000   0.00000   0.00000
   D26        3.14159   0.00000   0.00000   0.00000   0.00000   3.14159
   D27        3.14159   0.00000   0.00000   0.00000   0.00000   3.14159
   D28        0.00000   0.00000   0.00000   0.00000   0.00000   0.00000
         Item               Value     Threshold  Converged?
 Maximum Force            0.096716     0.000450     NO 
 RMS     Force            0.026996     0.000300     NO 
 Maximum Displacement     1.060448     0.001800     NO 
 RMS     Displacement     0.313056     0.001200     NO 
 Predicted change in Energy=-3.024696D-02
 GradGradGradGradGradGradGradGradGradGradGradGradGradGradGradGradGradGrad

                          Input orientation:                          
 ---------------------------------------------------------------------
 Center     Atomic      Atomic             Coordinates (Angstroms)
 Number     Number       Type             X           Y           Z
 ---------------------------------------------------------------------
      1          6           0       -3.966597   -4.452262    0.000000
      2          1           0       -2.898996   -4.494256    0.000000
      3          1           0       -4.532448   -5.367970    0.000000
      4          6           0       -4.607679   -3.278493    0.000000
      5          1           0       -5.687161   -3.273801    0.000000
      6          6           0       -4.331708   -1.796898    0.000000
      7          1           0       -5.228379   -1.188800    0.000000
      8          6           0       -3.490141   -0.711451    0.000000
      9          1           0       -3.959291    0.257267    0.000000
     10          6           0       -1.957142   -0.660710    0.000000
     11          1           0       -1.834839    0.414481    0.000000
     12          6           0       -0.793704   -1.394043    0.000000
     13          1           0       -0.174732   -0.509649    0.000000
     14          6           0        0.000304   -2.682257    0.000000
     15          1           0        1.003126   -2.282809    0.000000
     16          6           0       -0.148328   -4.016355    0.000000
     17          1           0       -1.117119   -4.468659    0.000000
     18          1           0        0.725280   -4.645337    0.000000
 ---------------------------------------------------------------------
                    Distance matrix (angstroms):
                    1          2          3          4          5
     1  C    0.000000
     2  H    1.068426   0.000000
     3  H    1.076433   1.852442   0.000000
     4  C    1.337431   2.097064   2.090831   0.000000
     5  H    2.085452   3.043580   2.391423   1.079492   0.000000
     6  C    2.680347   3.054243   3.576709   1.507077   2.004619
     7  H    3.498896   4.043768   4.236718   2.179927   2.134880
     8  C    3.771031   3.828716   4.771748   2.799749   3.375284
     9  H    4.709534   4.868387   5.654361   3.594719   3.931155
    10  C    4.291127   3.947551   5.365678   3.725337   4.554261
    11  H    5.313151   5.022761   6.380739   4.618084   5.333274
    12  C    4.406807   3.747475   5.456217   4.254123   5.242081
    13  H    5.470140   4.826873   6.526329   5.226616   6.166637
    14  C    4.343871   3.418959   5.268671   4.646397   5.718146
    15  H    5.422607   4.485204   6.337255   5.698467   6.763284
    16  C    3.843070   2.791874   4.587741   4.519984   5.588386
    17  H    2.849525   1.782060   3.531746   3.687886   4.723661
    18  H    4.695847   3.627423   5.307155   5.505335   6.557477
                    6          7          8          9         10
     6  C    0.000000
     7  H    1.083422   0.000000
     8  C    1.373474   1.802591   0.000000
     9  H    2.087652   1.923978   1.076343   0.000000
    10  C    2.632392   3.313589   1.533839   2.202563   0.000000
    11  H    3.335349   3.753215   2.001936   2.130261   1.082125
    12  C    3.560866   4.439422   2.781494   3.570402   1.375269
    13  H    4.351719   5.099077   3.321545   3.861483   1.788800
    14  C    4.421559   5.437788   4.008402   4.931450   2.813938
    15  H    5.356917   6.326809   4.760107   5.574726   3.375558
    16  C    4.735678   5.813947   4.700011   5.726018   3.812107
    17  H    4.179938   5.259271   4.443855   5.514737   3.899502
    18  H    5.804026   6.884308   5.765868   6.780909   4.803398
                   11         12         13         14         15
    11  H    0.000000
    12  C    2.086797   0.000000
    13  H    1.899993   1.079481   0.000000
    14  C    3.599658   1.513256   2.179648   0.000000
    15  H    3.915281   2.004621   2.128720   1.079450   0.000000
    16  C    4.740952   2.700561   3.506805   1.342352   2.081112
    17  H    4.935604   3.091579   4.069626   2.107099   3.045223
    18  H    5.670623   3.588624   4.232486   2.092671   2.378810
                   16         17         18
    16  C    0.000000
    17  H    1.069175   0.000000
    18  H    1.076480   1.850851   0.000000
 Stoichiometry    C8H10
 Framework group  CS[SG(C8H10)]
 Deg. of freedom    33
 Full point group                 CS      NOp   2
 Largest Abelian subgroup         CS      NOp   2
 Largest concise Abelian subgroup C1      NOp   1
                         Standard orientation:                         
 ---------------------------------------------------------------------
 Center     Atomic      Atomic             Coordinates (Angstroms)
 Number     Number       Type             X           Y           Z
 ---------------------------------------------------------------------
      1          6           0       -1.004242   -2.370754    0.000000
      2          1           0        0.040306   -2.146137    0.000000
      3          1           0       -1.324796   -3.398351    0.000000
      4          6           0       -1.916892   -1.393109    0.000000
      5          1           0       -2.963680   -1.656810    0.000000
      6          6           0       -2.017746    0.110590    0.000000
      7          1           0       -3.037401    0.476796    0.000000
      8          6           0       -1.472305    1.371116    0.000000
      9          1           0       -2.167461    2.192866    0.000000
     10          6           0        0.000000    1.801208    0.000000
     11          1           0       -0.148714    2.873065    0.000000
     12          6           0        1.309174    1.379986    0.000000
     13          1           0        1.688963    2.390451    0.000000
     14          6           0        2.398392    0.329486    0.000000
     15          1           0        3.270498    0.965601    0.000000
     16          6           0        2.585938   -0.999699    0.000000
     17          1           0        1.759931   -1.678556    0.000000
     18          1           0        3.588443   -1.391865    0.000000
 ---------------------------------------------------------------------
 Rotational constants (GHZ):      2.2687438      1.3845651      0.8598297
 Standard basis: 6-31G(d) (6D, 7F)
 There are   108 symmetry adapted basis functions of A'  symmetry.
 There are    32 symmetry adapted basis functions of A"  symmetry.
 Integral buffers will be    131072 words long.
 Raffenetti 2 integral format.
 Two-electron integral symmetry is turned on.
   140 basis functions,   264 primitive gaussians,   140 cartesian basis functions
    29 alpha electrons       29 beta electrons
       nuclear repulsion energy       305.3620373498 Hartrees.
 NAtoms=   18 NActive=   18 NUniq=   18 SFac= 1.00D+00 NAtFMM=   60 NAOKFM=F Big=F
 One-electron integrals computed using PRISM.
 NBasis=   140 RedAO= T  NBF=   108    32
 NBsUse=   140 1.00D-06 NBFU=   108    32
 Initial guess read from the read-write file.
 B after Tr=     0.000000    0.000000    0.000000
         Rot=    1.000000    0.000000    0.000000    0.000000 Ang=   0.00 deg.
 Initial guess orbital symmetries:
       Occupied  (A') (A') (A') (A') (A') (A') (A') (A') (A') (A')
                 (A') (A') (A') (A') (A') (A') (A') (A') (A') (A')
                 (A') (A') (A') (A') (A") (A") (A') (A") (A")
       Virtual   (A") (A") (A') (A") (A') (A') (A') (A') (A") (A')
                 (A') (A') (A') (A') (A') (A') (A') (A') (A') (A')
                 (A') (A') (A') (A") (A') (A") (A") (A") (A') (A')
                 (A") (A') (A') (A") (A') (A') (A') (A") (A') (A")
                 (A') (A') (A') (A') (A') (A') (A') (A') (A') (A')
                 (A') (A') (A') (A') (A') (A') (A') (A') (A') (A')
                 (A") (A') (A") (A') (A") (A") (A") (A') (A") (A")
                 (A') (A") (A") (A') (A') (A') (A") (A") (A') (A')
                 (A') (A") (A') (A') (A') (A') (A") (A') (A') (A")
                 (A') (A') (A') (A') (A') (A") (A') (A") (A') (A')
                 (A') (A') (A') (A') (A') (A') (A') (A') (A') (A')
                 (A')
 Harris functional with IExCor=  402 diagonalized for initial guess.
 ExpMin= 1.61D-01 ExpMax= 3.05D+03 ExpMxC= 4.57D+02 IAcc=1 IRadAn=         1 AccDes= 0.00D+00
 HarFok:  IExCor=  402 AccDes= 0.00D+00 IRadAn=         1 IDoV= 1
 ScaDFX=  1.000000  1.000000  1.000000  1.000000
 FoFCou: FMM=F IPFlag=           0 FMFlag=      100000 FMFlg1=           0
         NFxFlg=           0 DoJE=T BraDBF=F KetDBF=T FulRan=T
         Omega=  0.000000  0.000000  1.000000  0.000000  0.000000 ICntrl=     500 IOpCl=  0
         NMat0=    1 NMatS0=    1 NMatT0=    0 NMatD0=    1 NMtDS0=    0 NMtDT0=    0
         I1Cent=           4 NGrid=           0.
 Petite list used in FoFCou.
 Requested convergence on RMS density matrix=1.00D-08 within 128 cycles.
 Requested convergence on MAX density matrix=1.00D-06.
 Requested convergence on             energy=1.00D-06.
 No special actions if energy rises.
 Integral accuracy reduced to 1.0D-05 until final iterations.
 Initial convergence to 1.0D-05 achieved.  Increase integral accuracy.
 SCF Done:  E(RB3LYP) =  -310.688570340     A.U. after   14 cycles
             Convg  =    0.3928D-08             -V/T =  2.0105
 Calling FoFJK, ICntrl=      2127 FMM=F ISym2X=1 I1Cent= 0 IOpClX= 0 NMat=1 NMatS=1 NMatT=0.
 ***** Axes restored to original set *****
 -------------------------------------------------------------------
 Center     Atomic                   Forces (Hartrees/Bohr)
 Number     Number              X              Y              Z
 -------------------------------------------------------------------
      1        6           0.002151865    0.017899202    0.000000000
      2        1           0.009064443   -0.004899534    0.000000000
      3        1          -0.001302540   -0.005625034    0.000000000
      4        6          -0.008960473    0.038712639    0.000000000
      5        1          -0.007965065   -0.015922844    0.000000000
      6        6          -0.006323624    0.029681533    0.000000000
      7        1          -0.028416255   -0.025294210    0.000000000
      8        6           0.068476221   -0.072457594    0.000000000
      9        1           0.000786728    0.006325192    0.000000000
     10        6          -0.061746655   -0.006356495    0.000000000
     11        1           0.019749568    0.005483481    0.000000000
     12        6          -0.014411279    0.015900665    0.000000000
     13        1           0.034815013   -0.014286040    0.000000000
     14        6          -0.007519407    0.034596078    0.000000000
     15        1           0.012926224   -0.010957124    0.000000000
     16        6          -0.008735482    0.020525960    0.000000000
     17        1          -0.005967061   -0.008705453    0.000000000
     18        1           0.003377779   -0.004620424    0.000000000
 -------------------------------------------------------------------
 Cartesian Forces:  Max     0.072457594 RMS     0.020656203

 GradGradGradGradGradGradGradGradGradGradGradGradGradGradGradGradGradGrad
 Berny optimization.
 Using GEDIIS/GDIIS optimizer.
 Internal  Forces:  Max     0.057881287 RMS     0.016745154
 Search for a local minimum.
 Step number   3 out of a maximum of   79
 All quantities printed in internal units (Hartrees-Bohrs-Radians)
 Mixed Optimization -- RFO/linear search
 Update second derivatives using D2CorX and points    1    2    3
 DE= -5.30D-02 DEPred=-3.02D-02 R= 1.75D+00
 SS=  1.41D+00  RLast= 2.88D-01 DXNew= 5.0454D-01 8.6289D-01
 Trust test= 1.75D+00 RLast= 2.88D-01 DXMaxT set to 5.05D-01
 ITU=  1  0  0
 Use linear search instead of GDIIS.
     Eigenvalues ---    0.00237   0.00237   0.00237   0.01355   0.01356
     Eigenvalues ---    0.01483   0.01573   0.01593   0.01601   0.02681
     Eigenvalues ---    0.02681   0.02681   0.02681   0.02681   0.02681
     Eigenvalues ---    0.15275   0.16000   0.16000   0.16000   0.16000
     Eigenvalues ---    0.16000   0.16000   0.16000   0.16011   0.19291
     Eigenvalues ---    0.21755   0.22000   0.22000   0.22000   0.23543
     Eigenvalues ---    0.27749   0.28515   0.29425   0.36904   0.37194
     Eigenvalues ---    0.37230   0.37230   0.37230   0.37230   0.37230
     Eigenvalues ---    0.37230   0.37230   0.37856   0.53448   0.53909
     Eigenvalues ---    0.53930   0.56597   0.67675
 RFO step:  Lambda=-1.57175496D-02 EMin= 2.36824102D-03
 Quartic linear search produced a step of  0.69515.
 Iteration  1 RMS(Cart)=  0.14295856 RMS(Int)=  0.00450129
 Iteration  2 RMS(Cart)=  0.00764343 RMS(Int)=  0.00000589
 Iteration  3 RMS(Cart)=  0.00001301 RMS(Int)=  0.00000000
 Iteration  4 RMS(Cart)=  0.00000000 RMS(Int)=  0.00000000
 ClnCor:  largest displacement from symmetrization is 1.24D-10 for atom     3.
 Variable       Old X    -DE/DX   Delta X   Delta X   Delta X     New X
                                 (Linear)    (Quad)   (Total)
    R1        2.01903   0.00925   0.00706   0.00813   0.01519   2.03422
    R2        2.03416   0.00547   0.00525   0.00489   0.01014   2.04430
    R3        2.52738  -0.00173  -0.00974   0.01729   0.00756   2.53493
    R4        2.03994   0.00790   0.00789   0.00568   0.01357   2.05351
    R5        2.84796  -0.02838  -0.02886  -0.03821  -0.06707   2.78089
    R6        2.04737   0.00932   0.01079   0.00101   0.01180   2.05918
    R7        2.59549  -0.00173   0.01107  -0.03505  -0.02398   2.57151
    R8        2.03399   0.00535   0.00542   0.00342   0.00883   2.04283
    R9        2.89854  -0.02645  -0.01917  -0.07358  -0.09275   2.80578
   R10        2.04492   0.00768   0.01001  -0.00388   0.00612   2.05104
   R11        2.59888  -0.00504   0.01077  -0.04167  -0.03090   2.56798
   R12        2.03992   0.00826   0.00757   0.00898   0.01655   2.05647
   R13        2.85964  -0.02935  -0.02900  -0.04407  -0.07308   2.78656
   R14        2.03986   0.00795   0.00787   0.00598   0.01386   2.05372
   R15        2.53668  -0.00589  -0.00903   0.00749  -0.00154   2.53514
   R16        2.02045   0.00909   0.00703   0.00809   0.01512   2.03557
   R17        2.03425   0.00544   0.00530   0.00451   0.00982   2.04407
    A1        2.08499  -0.00430  -0.00475  -0.01753  -0.02228   2.06271
    A2        2.11001   0.00486   0.00717   0.00856   0.01574   2.12575
    A3        2.08819  -0.00055  -0.00242   0.00896   0.00654   2.09473
    A4        2.07504  -0.00235  -0.00128  -0.01959  -0.02087   2.05417
    A5        2.45754  -0.02784  -0.03853  -0.03306  -0.07160   2.38594
    A6        1.75061   0.03019   0.03981   0.05266   0.09247   1.84307
    A7        1.98257  -0.01762  -0.02725   0.00945  -0.01780   1.96476
    A8        2.66624  -0.04026  -0.06290  -0.03272  -0.09562   2.57062
    A9        1.63438   0.05788   0.09015   0.02327   0.11342   1.74780
   A10        2.03108  -0.01182   0.00695  -0.08266  -0.07571   1.95537
   A11        2.26339   0.03069   0.00587   0.11599   0.12187   2.38526
   A12        1.98872  -0.01887  -0.01282  -0.03333  -0.04616   1.94256
   A13        1.71715   0.02779   0.04482   0.04285   0.08768   1.80482
   A14        2.54609  -0.01671  -0.04806   0.04126  -0.00680   2.53929
   A15        2.01995  -0.01108   0.00323  -0.08411  -0.08088   1.93907
   A16        1.61903   0.05730   0.09159   0.01966   0.11125   1.73028
   A17        2.68557  -0.03969  -0.06564  -0.02454  -0.09018   2.59539
   A18        1.97858  -0.01760  -0.02595   0.00488  -0.02106   1.95752
   A19        1.74410   0.02815   0.03838   0.05067   0.08905   1.83315
   A20        2.47828  -0.02576  -0.03907  -0.02818  -0.06725   2.41103
   A21        2.06081  -0.00238   0.00069  -0.02249  -0.02180   2.03901
   A22        2.11855   0.00602   0.00281   0.02433   0.02713   2.14568
   A23        2.08385  -0.00120  -0.00025   0.00056   0.00031   2.08416
   A24        2.08078  -0.00482  -0.00256  -0.02489  -0.02744   2.05334
    D1        3.14159   0.00000   0.00000   0.00000   0.00000   3.14159
    D2        0.00000   0.00000   0.00000   0.00000   0.00000   0.00000
    D3        0.00000   0.00000   0.00000   0.00000   0.00000   0.00000
    D4        3.14159   0.00000   0.00000   0.00000   0.00000   3.14159
    D5        3.14159   0.00000   0.00000   0.00000   0.00000   3.14159
    D6        0.00000   0.00000   0.00000   0.00000   0.00000   0.00000
    D7        0.00000   0.00000   0.00000   0.00000   0.00000   0.00000
    D8        3.14159   0.00000   0.00000   0.00000   0.00000   3.14159
    D9        3.14159   0.00000   0.00000   0.00000   0.00000   3.14159
   D10        0.00000   0.00000   0.00000   0.00000   0.00000   0.00000
   D11        0.00000   0.00000   0.00000   0.00000   0.00000   0.00000
   D12        3.14159   0.00000   0.00000   0.00000   0.00000   3.14159
   D13        3.14159   0.00000   0.00000   0.00000   0.00000   3.14159
   D14        0.00000   0.00000   0.00000   0.00000   0.00000   0.00000
   D15        0.00000   0.00000   0.00000   0.00000   0.00000   0.00000
   D16        3.14159   0.00000   0.00000   0.00000   0.00000   3.14159
   D17        3.14159   0.00000   0.00000   0.00000   0.00000   3.14159
   D18        0.00000   0.00000   0.00000   0.00000   0.00000   0.00000
   D19        0.00000   0.00000   0.00000   0.00000   0.00000   0.00000
   D20        3.14159   0.00000   0.00000   0.00000   0.00000   3.14159
   D21        3.14159   0.00000   0.00000   0.00000   0.00000   3.14159
   D22        0.00000   0.00000   0.00000   0.00000   0.00000   0.00000
   D23        0.00000   0.00000   0.00000   0.00000   0.00000   0.00000
   D24        3.14159   0.00000   0.00000   0.00000   0.00000   3.14159
   D25        0.00000   0.00000   0.00000   0.00000   0.00000   0.00000
   D26        3.14159   0.00000   0.00000   0.00000   0.00000   3.14159
   D27        3.14159   0.00000   0.00000   0.00000   0.00000   3.14159
   D28        0.00000   0.00000   0.00000   0.00000   0.00000   0.00000
         Item               Value     Threshold  Converged?
 Maximum Force            0.057881     0.000450     NO 
 RMS     Force            0.016745     0.000300     NO 
 Maximum Displacement     0.533819     0.001800     NO 
 RMS     Displacement     0.146639     0.001200     NO 
 Predicted change in Energy=-3.369244D-02
 GradGradGradGradGradGradGradGradGradGradGradGradGradGradGradGradGradGrad

                          Input orientation:                          
 ---------------------------------------------------------------------
 Center     Atomic      Atomic             Coordinates (Angstroms)
 Number     Number       Type             X           Y           Z
 ---------------------------------------------------------------------
      1          6           0       -3.822753   -4.380240    0.000000
      2          1           0       -2.747188   -4.336301    0.000000
      3          1           0       -4.294351   -5.353831    0.000000
      4          6           0       -4.575502   -3.269924    0.000000
      5          1           0       -5.655316   -3.391812    0.000000
      6          6           0       -4.341235   -1.817106    0.000000
      7          1           0       -5.268010   -1.243987    0.000000
      8          6           0       -3.432911   -0.803855    0.000000
      9          1           0       -3.908346    0.167002    0.000000
     10          6           0       -1.953342   -0.679855    0.000000
     11          1           0       -1.790705    0.393254    0.000000
     12          6           0       -0.773162   -1.353524    0.000000
     13          1           0       -0.090439   -0.506089    0.000000
     14          6           0       -0.058575   -2.643395    0.000000
     15          1           0        0.996132   -2.381310    0.000000
     16          6           0       -0.357430   -3.951220    0.000000
     17          1           0       -1.369215   -4.320814    0.000000
     18          1           0        0.442794   -4.678997    0.000000
 ---------------------------------------------------------------------
                    Distance matrix (angstroms):
                    1          2          3          4          5
     1  C    0.000000
     2  H    1.076462   0.000000
     3  H    1.081797   1.851778   0.000000
     4  C    1.341429   2.116575   2.102787   0.000000
     5  H    2.082133   3.057657   2.387833   1.086671   0.000000
     6  C    2.615048   2.981163   3.537035   1.471585   2.050976
     7  H    3.453238   3.989606   4.223604   2.141026   2.182466
     8  C    3.597569   3.598388   4.630805   2.717906   3.411246
     9  H    4.548047   4.650594   5.534311   3.501080   3.964475
    10  C    4.145787   3.741630   5.227464   3.685673   4.589044
    11  H    5.188012   4.825304   6.268751   4.601519   5.409431
    12  C    4.296628   3.576834   5.329280   4.257978   5.290562
    13  H    5.379519   4.661421   6.416657   5.268262   6.268593
    14  C    4.145560   3.177196   5.028744   4.560172   5.646560
    15  H    5.217027   4.223083   6.068368   5.642050   6.727768
    16  C    3.491780   2.420585   4.179315   4.272739   5.327339
    17  H    2.454258   1.378060   3.102185   3.374114   4.385625
    18  H    4.275997   3.208337   4.784971   5.212368   6.232479
[...]
 ! R11   R(10,12)                1.3704         -DE/DX =    0.0                 !
 ! R12   R(12,13)                1.0902         -DE/DX =    0.0                 !
 ! R13   R(12,14)                1.462          -DE/DX =    0.0                 !
 ! R14   R(14,15)                1.0906         -DE/DX =    0.0                 !
 ! R15   R(14,16)                1.3399         -DE/DX =    0.0                 !
 ! R16   R(16,17)                1.0764         -DE/DX =    0.0                 !
 ! R17   R(16,18)                1.086          -DE/DX =    0.0                 !
 ! A1    A(2,1,3)              116.3799         -DE/DX =    0.0                 !
 ! A2    A(2,1,4)              123.2764         -DE/DX =    0.0                 !
 ! A3    A(3,1,4)              120.3437         -DE/DX =    0.0                 !
 ! A4    A(1,4,5)              115.2072         -DE/DX =    0.0                 !
 ! A5    A(1,4,6)              134.0154         -DE/DX =    0.0                 !
 ! A6    A(5,4,6)              110.7773         -DE/DX =    0.0                 !
 ! A7    A(4,6,7)              107.8871         -DE/DX =    0.0                 !
 ! A8    A(4,6,8)              143.008          -DE/DX =    0.0                 !
 ! A9    A(7,6,8)              109.1049         -DE/DX =    0.0                 !
 ! A10   A(6,8,9)              107.2907         -DE/DX =    0.0                 !
 ! A11   A(6,8,10)             147.8808         -DE/DX =    0.0                 !
 ! A12   A(9,8,10)             104.8285         -DE/DX =    0.0                 !
 ! A13   A(8,10,11)            104.7897         -DE/DX =    0.0                 !
 ! A14   A(8,10,12)            147.9582         -DE/DX =    0.0                 !
 ! A15   A(11,10,12)           107.2521         -DE/DX =    0.0                 !
 ! A16   A(10,12,13)           109.0186         -DE/DX =    0.0                 !
 ! A17   A(10,12,14)           143.2146         -DE/DX =    0.0                 !
 ! A18   A(13,12,14)           107.7668         -DE/DX =    0.0                 !
 ! A19   A(12,14,15)           110.639          -DE/DX =    0.0                 !
 ! A20   A(12,14,16)           134.2887         -DE/DX =    0.0                 !
 ! A21   A(15,14,16)           115.0724         -DE/DX =    0.0                 !
 ! A22   A(14,16,17)           123.4741         -DE/DX =    0.0                 !
 ! A23   A(14,16,18)           120.2386         -DE/DX =    0.0                 !
 ! A24   A(17,16,18)           116.2874         -DE/DX =    0.0                 !
 ! D1    D(2,1,4,5)            180.0            -DE/DX =    0.0                 !
 ! D2    D(2,1,4,6)              0.0            -DE/DX =    0.0                 !
 ! D3    D(3,1,4,5)              0.0            -DE/DX =    0.0                 !
 ! D4    D(3,1,4,6)            180.0            -DE/DX =    0.0                 !
 ! D5    D(1,4,6,7)            180.0            -DE/DX =    0.0                 !
 ! D6    D(1,4,6,8)              0.0            -DE/DX =    0.0                 !
 ! D7    D(5,4,6,7)              0.0            -DE/DX =    0.0                 !
 ! D8    D(5,4,6,8)            180.0            -DE/DX =    0.0                 !
 ! D9    D(4,6,8,9)            180.0            -DE/DX =    0.0                 !
 ! D10   D(4,6,8,10)             0.0            -DE/DX =    0.0                 !
 ! D11   D(7,6,8,9)              0.0            -DE/DX =    0.0                 !
 ! D12   D(7,6,8,10)           180.0            -DE/DX =    0.0                 !
 ! D13   D(6,8,10,11)          180.0            -DE/DX =    0.0                 !
 ! D14   D(6,8,10,12)            0.0            -DE/DX =    0.0                 !
 ! D15   D(9,8,10,11)            0.0            -DE/DX =    0.0                 !
 ! D16   D(9,8,10,12)          180.0            -DE/DX =    0.0                 !
 ! D17   D(8,10,12,13)         180.0            -DE/DX =    0.0                 !
 ! D18   D(8,10,12,14)           0.0            -DE/DX =    0.0                 !
 ! D19   D(11,10,12,13)          0.0            -DE/DX =    0.0                 !
 ! D20   D(11,10,12,14)        180.0            -DE/DX =    0.0                 !
 ! D21   D(10,12,14,15)        180.0            -DE/DX =    0.0                 !
 ! D22   D(10,12,14,16)          0.0            -DE/DX =    0.0                 !
 ! D23   D(13,12,14,15)          0.0            -DE/DX =    0.0                 !
 ! D24   D(13,12,14,16)        180.0            -DE/DX =    0.0                 !
 ! D25   D(12,14,16,17)          0.0            -DE/DX =    0.0                 !
 ! D26   D(12,14,16,18)        180.0            -DE/DX =    0.0                 !
 ! D27   D(15,14,16,17)        180.0            -DE/DX =    0.0                 !
 ! D28   D(15,14,16,18)          0.0            -DE/DX =    0.0                 !
 --------------------------------------------------------------------------------
 GradGradGradGradGradGradGradGradGradGradGradGradGradGradGradGradGradGrad

 1\1\GINC-NISER-THINKCENTRE-M93P\Freq\RB3LYP\6-31G(d)\C8H10\STUDENT\02-
 Mar-2021\0\\#N Geom=AllCheck Guess=TCheck SCRF=Check GenChk RB3LYP/6-3
 1G(d) Freq\\Title Card Required\\0,1\C,-3.9733074444,-4.3891906013,0.\
 H,-2.8969946696,-4.3808503785,0.\H,-4.4482672493,-5.3657726565,0.\C,-4
 .7170301364,-3.2748832385,0.\H,-5.7956309558,-3.4363340875,0.\C,-4.406
 5706842,-1.8467014689,0.\H,-5.3492759461,-1.2991048676,0.\C,-3.3684497
 953,-0.9523958855,0.\H,-3.8022003069,0.0473992548,0.\C,-1.914457391,-0
 .7318614671,0.\H,-1.7974138148,0.3516948169,0.\C,-0.6569686733,-1.2764
 73388,0.\H,0.0786609051,-0.4718650082,0.\C,0.0695358,-2.5451524542,0.\
 H,1.1462738908,-2.3715592934,0.\C,-0.2978431775,-3.8336619399,0.\H,-1.
 32408775,-4.1584216228,0.\H,0.4544744687,-4.6168690537,0.\\Version=EM6
 4L-G09RevC.01\State=1-A'\HF=-310.7364555\RMSD=5.434e-09\RMSF=1.153e-06
 \ZeroPoint=0.1530077\Thermal=0.1598434\Dipole=0.0030343,-0.0243786,0.\
 DipoleDeriv=-0.0033944,0.034099,0.,-0.0494724,-0.0552256,0.,0.,0.,-0.2
 633949,-0.0513299,0.0103226,0.,-0.0123943,0.0276865,0.,0.,0.,0.1299332
 ,0.0164288,-0.0717431,0.,-0.0571957,-0.0739927,0.,0.,0.,0.1242585,0.33
 68297,0.2093372,0.,0.0896624,0.0192637,0.,0.,0.,-0.071586,-0.1692098,-
 0.0463571,0.,-0.0129285,0.0162139,0.,0.,0.,0.1027407,-0.1104748,-0.205
 0245,0.,0.0927741,0.2410118,0.,0.,0.,-0.1005041,-0.1365816,0.0650991,0
 .,0.0552366,-0.036838,0.,0.,0.,0.0868659,0.1819927,-0.0589842,0.,-0.30
 9427,-0.0182317,0.,0.,0.,-0.0934511,-0.0393571,0.0389739,0.,0.0600193,
 -0.1458158,0.,0.,0.,0.0851885,0.0649891,0.0834541,0.,0.3336721,0.10439
 3,0.,0.,0.,-0.0929651,-0.0207413,0.0000003,0.,-0.0208026,-0.1645956,0.
 ,0.,0.,0.0850564,-0.1132444,0.0949887,0.,-0.2010105,0.2411037,0.,0.,0.
 ,-0.1007892,-0.093745,-0.0826971,0.,-0.0727515,-0.0801963,0.,0.,0.,0.0
 866913,0.3937082,-0.0927039,0.,0.0274535,-0.0362838,0.,0.,0.,-0.071269
 8,-0.1693345,-0.0123959,0.,-0.0463346,0.015639,0.,0.,0.,0.1024592,-0.0
 110997,-0.0181874,0.,0.0653653,-0.0475077,0.,0.,0.,-0.2639683,-0.04489
 43,-0.0346993,0.,-0.0130602,0.0216578,0.,0.,0.,0.1305733,-0.0305418,0.
 0865176,0.,0.071194,-0.0282822,0.,0.,0.,0.1241614\Polar=141.4217804,3.
 1129893,120.3466176,0.,0.,28.7386894\PG=CS [SG(C8H10)]\NImag=3\\0.7401
 2657,-0.09532759,0.77314587,0.,0.,0.09956485,-0.36045705,-0.00521364,0
 .,0.39531184,-0.00821513,-0.05896326,0.,0.00534101,0.04925015,0.,0.,-0
 .03390290,0.,0.,0.01433177,-0.11812002,-0.11906286,0.,-0.00814302,-0.0
 2651673,0.,0.11628613,-0.11423087,-0.28447982,0.,0.00169509,0.00264276
 ,0.,0.12239866,0.30326129,0.,0.,-0.03080427,0.,0.,0.00343033,0.,0.,0.0
 2117117,-0.25323784,0.20817177,0.,-0.01386624,0.02938416,0.,0.01004075
 ,-0.01342144,0.,0.68013600,0.18596376,-0.39367519,0.,-0.00220787,0.007
 26872,0.,0.01977508,-0.02131630,0.,-0.13334868,0.74151878,0.,0.,-0.047
 89634,0.,0.,0.00620132,0.,0.,0.00447024,0.,0.,0.12645802,-0.02054854,-
 0.00170041,0.,0.00014017,0.00336848,0.,0.00159464,0.00015844,0.,-0.319
 27381,-0.04110530,0.,0.34230297,0.03051883,0.00372360,0.,0.00278785,-0
 .00364834,0.,0.00063419,0.00093245,0.,-0.03938602,-0.06021787,0.,0.039
 48722,0.07610295,0.,0.,0.00572649,0.,0.,0.01257212,0.,0.,-0.00813807,0
 .,0.,-0.04214121,0.,0.,0.02738800,0.01773230,0.00689814,0.,0.00081370,
 -0.00067500,0.,-0.00080416,0.00351841,0.,-0.11094718,0.00222799,0.,-0.
 00852460,-0.03283288,0.,0.66369488,0.01086253,-0.04286410,0.,-0.000498
 23,0.00118662,0.,0.00164794,0.00064349,0.,-0.06124405,-0.22435338,0.,0
 .00100149,-0.01212936,0.,0.09367786,0.65645154,0.,0.,0.00533866,0.,0.,
 -0.00771792,0.,0.,0.01162905,0.,0.,-0.06231453,0.,0.,0.00329271,0.,0.,
 0.12877946,0.00156707,-0.00061470,0.,0.00014207,-0.00020504,0.,-0.0001
 2167,-0.00000173,0.,0.00213147,-0.00640130,0.,0.00224716,-0.00148746,0
 .,-0.25316460,0.12175749,0.,0.27674154,-0.00336654,-0.00450071,0.,-0.0
 0000483,0.00027560,0.,0.00067302,-0.00121656,0.,0.02797094,-0.02419062
 ,0.,0.00015661,-0.00068891,0.,0.12282705,-0.12176863,0.,-0.11629929,0.
 14996839,0.,0.,0.00221086,0.,0.,-0.00014353,0.,0.,-0.00014144,0.,0.,0.
 00579611,0.,0.,-0.00103881,0.,0.,-0.03726877,0.,0.,0.02457753,-0.00446
 933,0.01224207,0.,0.00014224,-0.00031814,0.,-0.00065923,0.00028855,0.,
 0.00577855,-0.03188431,0.,0.00247540,0.00039143,0.,-0.27892917,-0.1224
 8039,0.,-0.02857299,-0.02226556,0.,0.64686355,-0.00674736,0.00741485,0
 .,0.00055308,-0.00008935,0.,0.00055077,-0.00038242,0.,-0.01346043,-0.0
 2924107,0.,-0.00087672,-0.00261223,0.,-0.18420717,-0.23258893,0.,0.007
 54590,0.00167691,0.,0.10367951,0.62891452,0.,0.,-0.00046741,0.,0.,0.00
 029487,0.,0.,-0.00038288,0.,0.,0.00291946,0.,0.,0.00248764,0.,0.,-0.05
 058702,0.,0.,0.00421178,0.,0.,0.12666966,-0.00073170,-0.00013987,0.,0.
 00006969,0.00001745,0.,0.00019155,-0.00021856,0.,-0.00030233,-0.002690
 40,0.,-0.00037950,-0.00026319,0.,-0.00070141,-0.02634364,0.,-0.0006575
 9,-0.00625808,0.,-0.08981004,0.10366543,0.,0.12719618,-0.00031223,0.00
 009059,0.,0.00005932,0.00010442,0.,0.00010010,-0.00016936,0.,-0.002547
 96,0.00121363,0.,-0.00052012,-0.00097399,0.,0.00412487,-0.02785050,0.,
 -0.00178907,0.00056519,0.,0.10364584,-0.28087506,0.,-0.09386099,0.3038
 2635,0.,0.,-0.00034736,0.,0.,0.00055344,0.,0.,-0.00133728,0.,0.,0.0121
 5947,0.,0.,-0.00008158,0.,0.,0.00458835,0.,0.,-0.00875064,0.,0.,-0.038
 11575,0.,0.,0.02481246,0.00370261,-0.00626415,0.,-0.00012399,-0.000158
 03,0.,0.00010853,-0.00000374,0.,-0.00073292,0.01617145,0.,0.00009628,0
 .00058709,0.,-0.03580572,-0.03118343,0.,0.00085258,-0.00307454,0.,-0.1
 9462866,0.02204559,0.,-0.02745056,-0.00498146,0.,0.70406887,0.00081610
 ,0.00108638,0.,0.00011991,-0.00043200,0.,-0.00018922,0.00015164,0.,-0.
 00298301,-0.00018179,0.,0.00011823,-0.00049380,0.,-0.00892544,0.002178
 04,0.,-0.00121430,0.00090827,0.,-0.05386414,-0.09180203,0.,0.02659609,
 -0.00248889,0.,-0.08000716,0.57106389,0.,0.,-0.00011587,0.,0.,0.000147
 78,0.,0.,0.00067581,0.,0.,-0.00601201,0.,0.,0.00007510,0.,0.,0.0019870
 9,0.,0.,0.01197550,0.,0.,-0.06076608,0.,0.,0.00493217,0.,0.,0.12681515
 ,0.00004546,-0.00018282,0.,-0.00002595,0.00000480,0.,0.00003938,-0.000
 03985,0.,-0.00062160,0.00068845,0.,-0.00005038,-0.00030651,0.,-0.00237
 663,-0.00090374,0.,-0.00073435,0.00003960,0.,-0.01912105,-0.03179961,0
 .,-0.00373439,-0.00314543,0.,-0.04788773,-0.03115439,0.,0.08971753,0.0
 0009110,-0.00004239,0.,-0.00003826,0.00004547,0.,-0.00004362,-0.000017
 53,0.,0.00019167,0.00015037,0.,-0.00002492,-0.00002469,0.,-0.00077884,
 0.00310010,0.,-0.00067358,-0.00034635,0.,-0.00020489,-0.01083571,0.,0.
 00083307,0.00371492,0.,-0.03114616,-0.32276663,0.,0.02718621,0.3414250
 7,0.,0.,0.00002898,0.,0.,-0.00010570,0.,0.,0.00001946,0.,0.,-0.0000420
 6,0.,0.,-0.00017067,0.,0.,0.00308486,0.,0.,-0.00009664,0.,0.,0.0049782
 0,0.,0.,-0.00112951,0.,0.,-0.03826397,0.,0.,0.02492172,-0.00177447,0.0
 0249514,0.,0.00013540,-0.00000887,0.,0.00015128,-0.00006707,0.,0.00135
 519,-0.00712888,0.,0.00000263,-0.00021729,0.,0.01057482,0.01469719,0.,
 -0.00015729,-0.00008582,0.,-0.04381031,-0.00542376,0.,-0.00235633,-0.0
 0092994,0.,-0.36157253,0.14374078,0.,-0.00953824,0.00167320,0.,0.71587
 932,-0.00013101,-0.00225867,0.,-0.00026884,-0.00005633,0.,0.00029646,-
 0.00010718,0.,0.00100511,0.00481071,0.,0.00003657,-0.00007731,0.,-0.00
 994484,-0.00461534,0.,-0.00086509,-0.00092130,0.,0.01679952,0.01011718
 ,0.,-0.00078533,0.00308927,0.,0.08197201,-0.14918058,0.,0.03208263,-0.
 01918684,0.,-0.07511011,0.60234663,0.,0.,0.00023711,0.,0.,0.00010850,0
 .,0.,-0.00013499,0.,0.,-0.00001165,0.,0.,0.00001749,0.,0.,-0.00087759,
 0.,0.,-0.00015332,0.,0.,0.00198526,0.,0.,0.00307896,0.,0.,-0.05049858,
 0.,0.,0.00460652,0.,0.,0.12868968,-0.00006443,-0.00004793,0.,-0.000003
 71,0.00004600,0.,0.00000450,-0.00003653,0.,0.00017165,-0.00004314,0.,-
 0.00003087,-0.00006086,0.,-0.00049648,0.00099874,0.,-0.00032067,-0.000
 25823,0.,-0.00037110,0.00080513,0.,-0.00087617,0.00050791,0.,-0.030156
 15,-0.01739389,0.,-0.00285685,0.00070986,0.,-0.17156509,-0.13752456,0.
 ,0.19917671,0.00012183,-0.00003573,0.,0.00001300,0.00002240,0.,-0.0000
 5025,0.00000374,0.,-0.00002591,0.00008718,0.,-0.00002892,0.00004750,0.
 ,0.00021999,-0.00058257,0.,0.00013081,0.00008796,0.,0.00268711,0.00214
 219,0.,-0.00021096,-0.00019899,0.,0.01238045,0.00311376,0.,0.00519538,
 0.00278836,0.,-0.13854848,-0.20316108,0.,0.13156521,0.22768716,0.,0.,0
 .00002055,0.,0.,0.00001999,0.,0.,-0.00012126,0.,0.,0.00046594,0.,0.,0.
 00000741,0.,0.,-0.00015275,0.,0.,-0.00156967,0.,0.,0.01198483,0.,0.,-0
 .00009451,0.,0.,0.00424262,0.,0.,-0.00878695,0.,0.,-0.03719049,0.,0.,0
 .02444785,0.00051300,0.00059323,0.,0.00088925,-0.00036044,0.,-0.000426
 03,0.00005839,0.,-0.00171524,0.00000527,0.,-0.00007243,0.00032913,0.,-
 0.00012017,-0.00256399,0.,0.00014291,0.00004263,0.,0.00315135,0.004039
 25,0.,-0.00030450,-0.00033102,0.,-0.01046388,0.01924159,0.,-0.00162181
 ,0.00162497,0.,-0.13770256,0.08840627,0.,0.00583294,-0.01842190,0.,0.6
 0694450,-0.00015854,0.00122294,0.,0.00012830,0.00009133,0.,0.00004616,
 -0.00002072,0.,0.00035959,-0.00284311,0.,-0.00001550,-0.00012085,0.,0.
 00559930,0.00621938,0.,0.00006141,0.00011419,0.,-0.01511266,-0.0039252
 1,0.,-0.00083227,-0.00016537,0.,0.03766445,-0.01317650,0.,0.00182457,0
 .00257748,0.,0.02474808,-0.19620419,0.,0.01591398,-0.02812235,0.,0.090
 39108,0.81249030,0.,0.,-0.00005226,0.,0.,-0.00041007,0.,0.,0.00004758,
 0.,0.,0.00039572,0.,0.,-0.00000756,0.,0.,-0.00001310,0.,0.,0.00046553,
 0.,0.,-0.00600225,0.,0.,-0.00004065,0.,0.,0.00285974,0.,0.,0.01217851,
 0.,0.,-0.06240226,0.,0.,0.00582348,0.,0.,0.12654764,0.00015690,-0.0000
 5194,0.,-0.00007812,0.00006024,0.,-0.00005523,-0.00001855,0.,0.0000139
 9,0.00005742,0.,-0.00005028,0.00000073,0.,-0.00005627,-0.00002939,0.,-
 0.00004929,-0.00000175,0.,0.00024775,0.00011906,0.,-0.00014413,-0.0000
 1209,0.,0.00188311,0.00228403,0.,-0.00065446,0.00062608,0.,-0.01809743
 ,-0.00284732,0.,0.00159178,0.00058166,0.,-0.31857174,-0.04123989,0.,0.
 34049746,0.00024631,0.00012475,0.,0.00009454,0.00000453,0.,-0.00016998
 ,0.00001133,0.,-0.00028888,-0.00020716,0.,-0.00004770,0.00009659,0.,0.
 00022210,-0.00001933,0.,0.00003037,0.00006606,0.,-0.00035451,-0.000647
 17,0.,0.00027000,0.00006605,0.,0.00105626,-0.00196987,0.,0.00034766,-0
 .00069151,0.,0.03093321,-0.00275473,0.,0.00230778,-0.00011328,0.,-0.04
 296329,-0.06067806,0.,0.04475454,0.07808164,0.,0.,-0.00015108,0.,0.,0.
 00011239,0.,0.,0.00004326,0.,0.,-0.00000901,0.,0.,-0.00000327,0.,0.,0.
 00001685,0.,0.,0.00000789,0.,0.,0.00007407,0.,0.,-0.00016963,0.,0.,0.0
 0249187,0.,0.,-0.00008373,0.,0.,0.00330452,0.,0.,-0.00102571,0.,0.,-0.
 04214768,0.,0.,0.02737873,0.00251017,-0.00099467,0.,-0.00738826,-0.000
 41961,0.,0.00020167,0.00020760,0.,0.00070743,-0.00001250,0.,0.00020998
 ,-0.00021865,0.,-0.00111481,0.00051683,0.,-0.00004170,-0.00012275,0.,0
 .00183509,-0.00059731,0.,0.00000720,-0.00007289,0.,-0.00169576,0.00382
 819,0.,-0.00079609,0.00004480,0.,0.01712949,0.00819340,0.,-0.00009205,
 0.00473175,0.,-0.15144259,-0.10791487,0.,-0.01000075,-0.03491647,0.,0.
 68742344,0.00140533,0.00104044,0.,-0.00141959,-0.00088212,0.,0.0003788
 5,0.00003017,0.,-0.00068673,0.00106013,0.,0.00008980,0.00005497,0.,-0.
 00216959,-0.00287183,0.,0.00004520,-0.00006173,0.,0.00654639,0.0028342
 6,0.,0.00019554,-0.00000982,0.,-0.01513792,0.00480212,0.,-0.00013179,0
 .00013928,0.,0.01225074,-0.04226854,0.,0.00198692,-0.00276743,0.,-0.13
 043282,-0.49481651,0.,-0.00270659,-0.00702617,0.,0.06878357,0.82506324
 ,0.,0.,0.00136496,0.,0.,-0.00056796,0.,0.,-0.00019070,0.,0.,-0.0000426
 6,0.,0.,-0.00015715,0.,0.,0.00024060,0.,0.,0.00001914,0.,0.,-0.0001179
 5,0.,0.,0.00002988,0.,0.,-0.00045814,0.,0.,-0.00034944,0.,0.,0.0052967
 7,0.,0.,0.00221640,0.,0.,-0.04782453,0.,0.,0.00573044,0.,0.,0.09950572
 ,-0.00732875,-0.00056734,0.,-0.00752947,-0.00160265,0.,0.00016293,-0.0
 0029549,0.,0.00074554,0.00009298,0.,-0.00003284,-0.00010118,0.,0.00003
 239,0.00029380,0.,0.00001542,-0.00001530,0.,-0.00018195,-0.00005566,0.
 ,-0.00002713,0.00001329,0.,0.00020308,-0.00046471,0.,0.00009396,-0.000
 06259,0.,0.00048990,0.00027295,0.,0.00009094,-0.00005500,0.,-0.0039177
 7,-0.00139808,0.,0.00157839,-0.00111945,0.,-0.33538104,-0.08464242,0.,
 0.36544137,-0.00143629,-0.00092028,0.,-0.00142596,0.00298358,0.,-0.000
 30958,0.00002184,0.,0.00048812,0.00020929,0.,-0.00007761,-0.00003305,0
 .,0.00005524,0.00001926,0.,-0.00004862,0.00000314,0.,0.00022796,-0.000
 30935,0.,-0.00002355,0.00004999,0.,0.00038248,-0.00014727,0.,-0.000019
 43,0.00007568,0.,0.00040023,0.00138278,0.,0.00015688,0.00030951,0.,-0.
 03278203,-0.00232046,0.,-0.00169258,-0.00508532,0.,-0.08180922,-0.0839
 5787,0.,0.09691282,0.07883088,0.,0.,-0.00056837,0.,0.,0.00564719,0.,0.
 ,-0.00055257,0.,0.,-0.00044846,0.,0.,0.00012859,0.,0.,0.00011121,0.,0.
 ,0.00001590,0.,0.,0.00015534,0.,0.,-0.00010692,0.,0.,0.00028926,0.,0.,
 0.00055824,0.,0.,-0.00769696,0.,0.,-0.00014714,0.,0.,0.00611614,0.,0.,
 0.01260459,0.,0.,-0.03392736,0.,0.,0.01434140,0.00037806,-0.00023243,0
 .,-0.00002856,0.00025749,0.,-0.00045202,0.00000866,0.,-0.00038341,-0.0
 0016003,0.,-0.00010601,0.00013758,0.,0.00019311,-0.00020702,0.,-0.0000
 2007,0.00004285,0.,0.00005989,0.00016432,0.,0.00001116,0.00005187,0.,-
 0.00039717,-0.00054864,0.,0.00012319,-0.00000810,0.,0.00085621,-0.0015
 8784,0.,-0.00003494,-0.00028576,0.,0.00888477,-0.01006511,0.,0.0017883
 3,-0.00040249,0.,-0.20207143,0.14564511,0.,-0.01445496,0.02100114,0.,0
 .20565386,-0.00010022,-0.00010927,0.,0.00028514,0.00019580,0.,-0.00015
 898,0.00001117,0.,-0.00017827,-0.00009232,0.,-0.00001963,0.00006233,0.
 ,0.00016281,-0.00015446,0.,0.00002900,0.00002910,0.,-0.00002379,0.0002
 0861,0.,0.00004925,0.00001156,0.,-0.00030321,-0.00066476,0.,0.00031426
 ,-0.00010509,0.,-0.00341835,-0.00095449,0.,0.00036674,-0.00130835,0.,0
 .02312369,-0.02032228,0.,0.00011634,0.00074167,0.,0.14077280,-0.200362
 61,0.,-0.00720596,0.00888766,0.,-0.15381159,0.21392575,0.,0.,-0.000186
 62,0.,0.,-0.00057161,0.,0.,0.00031654,0.,0.,0.00005165,0.,0.,0.0000427
 8,0.,0.,-0.00013717,0.,0.,-0.00011741,0.,0.,0.00067823,0.,0.,0.0000190
 9,0.,0.,-0.00037745,0.,0.,-0.00134781,0.,0.,0.01164105,0.,0.,-0.000140
 58,0.,0.,0.00446600,0.,0.,-0.00817451,0.,0.,-0.03076803,0.,0.,0.003479
 92,0.,0.,0.02112592\\0.00000063,-0.00000124,0.,0.00000048,-0.00000073,
 0.,0.00000149,-0.00000113,0.,0.00000271,-0.00000057,0.,0.00000002,-0.0
 0000187,0.,-0.00000204,0.00000011,0.,0.00000026,-0.00000122,0.,-0.0000
 0147,-0.00000119,0.,-0.00000139,-0.00000082,0.,0.00000032,-0.00000186,
 0.,-0.00000184,0.00000039,0.,0.00000088,0.00000248,0.,-0.00000179,0.00
 000123,0.,-0.00000278,0.00000111,0.,0.00000045,0.00000189,0.,0.0000012
 1,0.00000163,0.,0.00000163,0.00000013,0.,0.00000123,0.00000165,0.\\\@


 A MAN IS NEVER SO BRILLIANT AS WHEN HE TAKES THE WORDS RIGHT OUT
 OF YOUR MOUTH. -- ARNOT SHEPPARD, JR.
 Job cpu time:  0 days  0 hours  4 minutes 31.4 seconds.
 File lengths (MBytes):  RWF=     49 Int=      0 D2E=      0 Chk=      3 Scr=      1
 Normal termination of Gaussian 09 at Tue Mar  2 16:39:20 2021.
