 Entering Gaussian System, Link 0=g09
 Input=6.com
 Output=6.log
 Initial command:
 /home/student/g09/l1.exe /home/student/singh/octa/Gau-23745.inp -scrdir=/home/student/singh/octa/
 Entering Link 1 = /home/student/g09/l1.exe PID=     23747.
  
 Copyright (c) 1988,1990,1992,1993,1995,1998,2003,2009,2011,
            Gaussian, Inc.  All Rights Reserved.
  
 This is part of the Gaussian(R) 09 program.  It is based on
 the Gaussian(R) 03 system (copyright 2003, Gaussian, Inc.),
 the Gaussian(R) 98 system (copyright 1998, Gaussian, Inc.),
 the Gaussian(R) 94 system (copyright 1995, Gaussian, Inc.),
 the Gaussian 92(TM) system (copyright 1992, Gaussian, Inc.),
 the Gaussian 90(TM) system (copyright 1990, Gaussian, Inc.),
 the Gaussian 88(TM) system (copyright 1988, Gaussian, Inc.),
 the Gaussian 86(TM) system (copyright 1986, Carnegie Mellon
 University), and the Gaussian 82(TM) system (copyright 1983,
 Carnegie Mellon University). Gaussian is a federally registered
 trademark of Gaussian, Inc.
  
 This software contains proprietary and confidential information,
 including trade secrets, belonging to Gaussian, Inc.
  
 This software is provided under written license and may be
 used, copied, transmitted, or stored only in accord with that
 written license.
  
 The following legend is applicable only to US Government
 contracts under FAR:
  
                    RESTRICTED RIGHTS LEGEND
  
 Use, reproduction and disclosure by the US Government is
 subject to restrictions as set forth in subparagraphs (a)
 and (c) of the Commercial Computer Software - Restricted
 Rights clause in FAR 52.227-19.
  
 Gaussian, Inc.
 340 Quinnipiac St., Bldg. 40, Wallingford CT 06492
  
  
 ---------------------------------------------------------------
 Warning -- This program may not be used in any manner that
 competes with the business of Gaussian, Inc. or will provide
 assistance to any competitor of Gaussian, Inc.  The licensee
 of this program is prohibited from giving any competitor of
 Gaussian, Inc. access to this program.  By using this program,
 the user acknowledges that Gaussian, Inc. is engaged in the
 business of creating and licensing software in the field of
 computational chemistry and represents and warrants to the
 licensee that it is not a competitor of Gaussian, Inc. and that
 it will not use this program in any manner prohibited above.
 ---------------------------------------------------------------
  

 Cite this work as:
 Gaussian 09, Revision C.01,
 M. J. Frisch, G. W. Trucks, H. B. Schlegel, G. E. Scuseria, 
 M. A. Robb, J. R. Cheeseman, G. Scalmani, V. Barone, B. Mennucci, 
 G. A. Petersson, H. Nakatsuji, M. Caricato, X. Li, H. P. Hratchian, 
 A. F. Izmaylov, J. Bloino, G. Zheng, J. L. Sonnenberg, M. Hada, 
 M. Ehara, K. Toyota, R. Fukuda, J. Hasegawa, M. Ishida, T. Nakajima, 
 Y. Honda, O. Kitao, H. Nakai, T. Vreven, J. A. Montgomery, Jr., 
 J. E. Peralta, F. Ogliaro, M. Bearpark, J. J. Heyd, E. Brothers, 
 K. N. Kudin, V. N. Staroverov, T. Keith, R. Kobayashi, J. Normand, 
 K. Raghavachari, A. Rendell, J. C. Burant, S. S. Iyengar, J. Tomasi, 
 M. Cossi, N. Rega, J. M. Millam, M. Klene, J. E. Knox, J. B. Cross, 
 V. Bakken, C. Adamo, J. Jaramillo, R. Gomperts, R. E. Stratmann, 
 O. Yazyev, A. J. Austin, R. Cammi, C. Pomelli, J. W. Ochterski, 
 R. L. Martin, K. Morokuma, V. G. Zakrzewski, G. A. Voth, 
 P. Salvador, J. J. Dannenberg, S. Dapprich, A. D. Daniels, 
 O. Farkas, J. B. Foresman, J. V. Ortiz, J. Cioslowski, 
 and D. J. Fox, Gaussian, Inc., Wallingford CT, 2010.
 
 ******************************************
 Gaussian 09:  EM64L-G09RevC.01 23-Sep-2011
                 2-Mar-2021 
 ******************************************
 %chk=6.chk
 -----------------------------------------
 # opt freq b3lyp/6-31g* geom=connectivity
 -----------------------------------------
 1/14=-1,18=20,19=15,26=3,38=1,57=2/1,3;
 2/9=110,12=2,17=6,18=5,40=1/2;
 3/5=1,6=6,7=1,11=2,16=1,25=1,30=1,71=1,74=-5/1,2,3;
 4//1;
 5/5=2,38=5/2;
 6/7=2,8=2,9=2,10=2,28=1/1;
 7//1,2,3,16;
 1/14=-1,18=20,19=15/3(2);
 2/9=110/2;
 99//99;
 2/9=110/2;
 3/5=1,6=6,7=1,11=2,16=1,25=1,30=1,71=1,74=-5/1,2,3;
 4/5=5,16=3/1;
 5/5=2,38=5/2;
 7//1,2,3,16;
 1/14=-1,18=20,19=15/3(-5);
 2/9=110/2;
 6/7=2,8=2,9=2,10=2,19=2,28=1/1;
 99/9=1/99;
 -------------------
 Title Card Required
 -------------------
 Charge =  0 Multiplicity = 1
 Symbolic Z-Matrix:
 C                    -6.25521  -1.16762   0. 
 H                    -6.12929  -0.10506   0. 
 H                    -7.2392   -1.58792   0. 
 C                    -5.17268  -1.98292   0. 
 H                    -5.29859  -3.04548   0. 
 C                    -3.63268  -1.98292   0. 
 H                    -3.09952  -2.91062   0. 
 C                    -2.95044  -0.81197   0. 
 H                    -3.47808   0.11888   0. 
 C                    -1.41046  -0.82112   0. 
 H                    -1.26908   0.2395    0. 
 C                    -0.33501  -1.64573   0. 
 H                    -0.47009  -2.70717   0. 
 C                     1.08638  -1.05306   0. 
 H                     1.61954  -1.98077   0. 
 C                     1.76862   0.11788   0. 
 H                     1.24098   1.04874   0. 
 H                     2.8386    0.11152  0. 
 

 GradGradGradGradGradGradGradGradGradGradGradGradGradGradGradGradGradGrad
 Berny optimization.
 Initialization pass.
                           ----------------------------
                           !    Initial Parameters    !
                           ! (Angstroms and Degrees)  !
 --------------------------                            --------------------------
 ! Name  Definition              Value          Derivative Info.                !
 --------------------------------------------------------------------------------
 ! R1    R(1,2)                  1.07           estimate D2E/DX2                !
 ! R2    R(1,3)                  1.07           estimate D2E/DX2                !
 ! R3    R(1,4)                  1.3552         estimate D2E/DX2                !
 ! R4    R(4,5)                  1.07           estimate D2E/DX2                !
 ! R5    R(4,6)                  1.54           estimate D2E/DX2                !
 ! R6    R(6,7)                  1.07           estimate D2E/DX2                !
 ! R7    R(6,8)                  1.3552         estimate D2E/DX2                !
 ! R8    R(8,9)                  1.07           estimate D2E/DX2                !
 ! R9    R(8,10)                 1.54           estimate D2E/DX2                !
 ! R10   R(10,11)                1.07           estimate D2E/DX2                !
 ! R11   R(10,12)                1.3552         estimate D2E/DX2                !
 ! R12   R(12,13)                1.07           estimate D2E/DX2                !
 ! R13   R(12,14)                1.54           estimate D2E/DX2                !
 ! R14   R(14,15)                1.07           estimate D2E/DX2                !
 ! R15   R(14,16)                1.3552         estimate D2E/DX2                !
 ! R16   R(16,17)                1.07           estimate D2E/DX2                !
 ! R17   R(16,18)                1.07           estimate D2E/DX2                !
 ! A1    A(2,1,3)              119.8865         estimate D2E/DX2                !
 ! A2    A(2,1,4)              120.2269         estimate D2E/DX2                !
 ! A3    A(3,1,4)              119.8865         estimate D2E/DX2                !
 ! A4    A(1,4,5)              120.2269         estimate D2E/DX2                !
 ! A5    A(1,4,6)              143.0151         estimate D2E/DX2                !
 ! A6    A(5,4,6)               96.7579         estimate D2E/DX2                !
 ! A7    A(4,6,7)              119.8865         estimate D2E/DX2                !
 ! A8    A(4,6,8)              120.2269         estimate D2E/DX2                !
 ! A9    A(7,6,8)              119.8865         estimate D2E/DX2                !
 ! A10   A(6,8,9)              120.2269         estimate D2E/DX2                !
 ! A11   A(6,8,10)             119.8865         estimate D2E/DX2                !
 ! A12   A(9,8,10)             119.8865         estimate D2E/DX2                !
 ! A13   A(8,10,11)             97.2523         estimate D2E/DX2                !
 ! A14   A(8,10,12)            142.8611         estimate D2E/DX2                !
 ! A15   A(11,10,12)           119.8865         estimate D2E/DX2                !
 ! A16   A(10,12,13)           120.2269         estimate D2E/DX2                !
 ! A17   A(10,12,14)           119.8865         estimate D2E/DX2                !
 ! A18   A(13,12,14)           119.8865         estimate D2E/DX2                !
 ! A19   A(12,14,15)            97.2523         estimate D2E/DX2                !
 ! A20   A(12,14,16)           142.8611         estimate D2E/DX2                !
 ! A21   A(15,14,16)           119.8865         estimate D2E/DX2                !
 ! A22   A(14,16,17)           120.2269         estimate D2E/DX2                !
 ! A23   A(14,16,18)           119.8865         estimate D2E/DX2                !
 ! A24   A(17,16,18)           119.8865         estimate D2E/DX2                !
 ! D1    D(2,1,4,5)            180.0            estimate D2E/DX2                !
 ! D2    D(2,1,4,6)              0.0            estimate D2E/DX2                !
 ! D3    D(3,1,4,5)              0.0            estimate D2E/DX2                !
 ! D4    D(3,1,4,6)            180.0            estimate D2E/DX2                !
 ! D5    D(1,4,6,7)            180.0            estimate D2E/DX2                !
 ! D6    D(1,4,6,8)              0.0            estimate D2E/DX2                !
 ! D7    D(5,4,6,7)              0.0            estimate D2E/DX2                !
 ! D8    D(5,4,6,8)            180.0            estimate D2E/DX2                !
 ! D9    D(4,6,8,9)              0.0            estimate D2E/DX2                !
 ! D10   D(4,6,8,10)           180.0            estimate D2E/DX2                !
 ! D11   D(7,6,8,9)            180.0            estimate D2E/DX2                !
 ! D12   D(7,6,8,10)             0.0            estimate D2E/DX2                !
 ! D13   D(6,8,10,11)          180.0            estimate D2E/DX2                !
 ! D14   D(6,8,10,12)            0.0            estimate D2E/DX2                !
 ! D15   D(9,8,10,11)            0.0            estimate D2E/DX2                !
 ! D16   D(9,8,10,12)          180.0            estimate D2E/DX2                !
 ! D17   D(8,10,12,13)           0.0            estimate D2E/DX2                !
 ! D18   D(8,10,12,14)         180.0            estimate D2E/DX2                !
 ! D19   D(11,10,12,13)        180.0            estimate D2E/DX2                !
 ! D20   D(11,10,12,14)          0.0            estimate D2E/DX2                !
 ! D21   D(10,12,14,15)        180.0            estimate D2E/DX2                !
 ! D22   D(10,12,14,16)          0.0            estimate D2E/DX2                !
 ! D23   D(13,12,14,15)          0.0            estimate D2E/DX2                !
 ! D24   D(13,12,14,16)        180.0            estimate D2E/DX2                !
 ! D25   D(12,14,16,17)          0.0            estimate D2E/DX2                !
 ! D26   D(12,14,16,18)       -180.0            estimate D2E/DX2                !
 ! D27   D(15,14,16,17)       -180.0            estimate D2E/DX2                !
 ! D28   D(15,14,16,18)          0.0            estimate D2E/DX2                !
 --------------------------------------------------------------------------------
 Trust Radius=3.00D-01 FncErr=1.00D-07 GrdErr=1.00D-06
 Number of steps in this run=     79 maximum allowed number of steps=    108.
 GradGradGradGradGradGradGradGradGradGradGradGradGradGradGradGradGradGrad

                          Input orientation:                          
 ---------------------------------------------------------------------
 Center     Atomic      Atomic             Coordinates (Angstroms)
 Number     Number       Type             X           Y           Z
 ---------------------------------------------------------------------
      1          6           0       -6.255206   -1.167624    0.000000
      2          1           0       -6.129294   -0.105058    0.000000
      3          1           0       -7.239205   -1.587916    0.000000
      4          6           0       -5.172679   -1.982917    0.000000
      5          1           0       -5.298591   -3.045483    0.000000
      6          6           0       -3.632679   -1.982917    0.000000
      7          1           0       -3.099515   -2.910622    0.000000
      8          6           0       -2.950436   -0.811973    0.000000
      9          1           0       -3.478078    0.118883    0.000000
     10          6           0       -1.410463   -0.821123    0.000000
     11          1           0       -1.269083    0.239496    0.000000
     12          6           0       -0.335012   -1.645727    0.000000
     13          1           0       -0.470088   -2.707167    0.000000
     14          6           0        1.086378   -1.053064    0.000000
     15          1           0        1.619542   -1.980769    0.000000
     16          6           0        1.768622    0.117881    0.000000
     17          1           0        1.240979    1.048737    0.000000
     18          1           0        2.838603    0.111523    0.000000
 ---------------------------------------------------------------------
                    Distance matrix (angstroms):
                    1          2          3          4          5
     1  C    0.000000
     2  H    1.070000   0.000000
     3  H    1.070000   1.852234   0.000000
     4  C    1.355200   2.107479   2.103938   0.000000
     5  H    2.107479   3.055514   2.427032   1.070000   0.000000
     6  C    2.746334   3.124011   3.628092   1.540000   1.975932
     7  H    3.605055   4.129255   4.345869   2.271265   2.203207
     8  C    3.323852   3.256512   4.358397   2.511867   3.240741
     9  H    3.060643   2.660657   4.130283   2.699859   3.650682
    10  C    4.857118   4.772852   5.878963   3.937517   4.479433
    11  H    5.180869   4.872409   6.243540   4.491902   5.198848
    12  C    5.939467   5.995612   6.904435   4.849404   5.157173
    13  H    5.986466   6.228771   6.861025   4.758035   4.840340
    14  C    7.342477   7.277681   8.342745   6.327750   6.688614
    15  H    7.916619   7.972625   8.867453   6.792221   6.999584
    16  C    8.126151   7.901061   9.167916   7.252242   7.742891
    17  H    7.816971   7.460038   8.880623   7.094078   7.715479
    18  H    9.183331   8.970512  10.220093   8.280539   8.728150
                    6          7          8          9         10
     6  C    0.000000
     7  H    1.070000   0.000000
     8  C    1.355200   2.103938   0.000000
     9  H    2.107479   3.053066   1.070000   0.000000
    10  C    2.507591   2.686802   1.540000   2.271265   0.000000
    11  H    3.244335   3.643313   1.983062   2.212286   1.070000
    12  C    3.314861   3.040138   2.745102   3.604541   1.355200
    13  H    3.244460   2.637287   3.121520   4.127295   2.107479
    14  C    4.809795   4.579545   4.044007   4.712507   2.507591
    15  H    5.252221   4.809795   4.717073   5.513100   3.244335
    16  C    5.795464   5.733288   4.809795   5.246700   3.314861
    17  H    5.739640   5.875067   4.585870   4.809795   3.244460
    18  H    6.801777   6.662928   5.862236   6.316685   4.350217
                   11         12         13         14         15
    11  H    0.000000
    12  C    2.103938   0.000000
    13  H    3.053066   1.070000   0.000000
    14  C    2.686802   1.540000   2.271265   0.000000
    15  H    3.643313   1.983062   2.212286   1.070000   0.000000
    16  C    3.040138   2.745102   3.604541   1.355200   2.103938
    17  H    2.637287   3.121520   4.127295   2.107479   3.053066
    18  H    4.109678   3.627638   4.346545   2.103938   2.421527
                   16         17         18
    16  C    0.000000
    17  H    1.070000   0.000000
    18  H    1.070000   1.852234   0.000000
 Stoichiometry    C8H10
 Framework group  CS[SG(C8H10)]
 Deg. of freedom    33
 Full point group                 CS      NOp   2
 Largest Abelian subgroup         CS      NOp   2
 Largest concise Abelian subgroup C1      NOp   1
                         Standard orientation:                         
 ---------------------------------------------------------------------
 Center     Atomic      Atomic             Coordinates (Angstroms)
 Number     Number       Type             X           Y           Z
 ---------------------------------------------------------------------
      1          6           0        3.569835    2.096285    0.000000
      2          1           0        3.995967    1.114800    0.000000
      3          1           0        4.208462    2.954805    0.000000
      4          6           0        2.224051    2.255757    0.000000
      5          1           0        1.797920    3.237242    0.000000
      6          6           0        0.893432    1.480481    0.000000
      7          1           0       -0.034273    2.013645    0.000000
      8          6           0        0.893432    0.125281    0.000000
      9          1           0        1.817953   -0.413385    0.000000
     10          6           0       -0.441769   -0.642076    0.000000
     11          1           0       -0.029984   -1.629666    0.000000
     12          6           0       -1.786127   -0.470997    0.000000
     13          1           0       -2.203773    0.514128    0.000000
     14          6           0       -2.715900   -1.698646    0.000000
     15          1           0       -3.643605   -1.165482    0.000000
     16          6           0       -2.715900   -3.053846    0.000000
     17          1           0       -1.791380   -3.592512    0.000000
     18          1           0       -3.643605   -3.587010    0.000000
 ---------------------------------------------------------------------
 Rotational constants (GHZ):     10.8424042      0.6107414      0.5781735
 Standard basis: 6-31G(d) (6D, 7F)
 There are   108 symmetry adapted basis functions of A'  symmetry.
 There are    32 symmetry adapted basis functions of A"  symmetry.
 Integral buffers will be    131072 words long.
 Raffenetti 2 integral format.
 Two-electron integral symmetry is turned on.
   140 basis functions,   264 primitive gaussians,   140 cartesian basis functions
    29 alpha electrons       29 beta electrons
       nuclear repulsion energy       294.7868716865 Hartrees.
 NAtoms=   18 NActive=   18 NUniq=   18 SFac= 1.00D+00 NAtFMM=   60 NAOKFM=F Big=F
 One-electron integrals computed using PRISM.
 NBasis=   140 RedAO= T  NBF=   108    32
 NBsUse=   140 1.00D-06 NBFU=   108    32
 Harris functional with IExCor=  402 diagonalized for initial guess.
 ExpMin= 1.61D-01 ExpMax= 3.05D+03 ExpMxC= 4.57D+02 IAcc=1 IRadAn=         1 AccDes= 0.00D+00
 HarFok:  IExCor=  402 AccDes= 0.00D+00 IRadAn=         1 IDoV= 1
 ScaDFX=  1.000000  1.000000  1.000000  1.000000
 FoFCou: FMM=F IPFlag=           0 FMFlag=      100000 FMFlg1=           0
         NFxFlg=           0 DoJE=T BraDBF=F KetDBF=T FulRan=T
         Omega=  0.000000  0.000000  1.000000  0.000000  0.000000 ICntrl=     500 IOpCl=  0
         NMat0=    1 NMatS0=    1 NMatT0=    0 NMatD0=    1 NMtDS0=    0 NMtDT0=    0
         I1Cent=           4 NGrid=           0.
 Petite list used in FoFCou.
 Initial guess orbital symmetries:
       Occupied  (A') (A') (A') (A') (A') (A') (A') (A') (A') (A')
                 (A') (A') (A') (A') (A') (A') (A') (A') (A') (A')
                 (A') (A') (A') (A') (A") (A') (A") (A") (A")
       Virtual   (A") (A") (A") (A") (A') (A') (A') (A') (A') (A')
                 (A') (A') (A') (A') (A') (A') (A') (A') (A') (A')
                 (A') (A') (A') (A") (A') (A") (A') (A") (A') (A")
                 (A') (A') (A") (A') (A') (A') (A") (A") (A") (A')
                 (A') (A') (A') (A') (A') (A') (A') (A') (A') (A')
                 (A') (A') (A') (A') (A') (A') (A') (A') (A') (A')
                 (A") (A") (A") (A') (A') (A") (A") (A') (A") (A")
                 (A") (A') (A") (A') (A') (A') (A') (A") (A') (A')
                 (A') (A") (A") (A') (A') (A') (A') (A') (A") (A')
                 (A") (A') (A') (A") (A') (A') (A") (A') (A') (A')
                 (A') (A') (A') (A') (A') (A') (A') (A') (A') (A')
                 (A')
 The electronic state of the initial guess is 1-A'.
 Requested convergence on RMS density matrix=1.00D-08 within 128 cycles.
 Requested convergence on MAX density matrix=1.00D-06.
 Requested convergence on             energy=1.00D-06.
 No special actions if energy rises.
 Integral accuracy reduced to 1.0D-05 until final iterations.
 Initial convergence to 1.0D-05 achieved.  Increase integral accuracy.
 SCF Done:  E(RB3LYP) =  -310.728474064     A.U. after   14 cycles
             Convg  =    0.3689D-08             -V/T =  2.0107

 **********************************************************************

            Population analysis using the SCF density.

 **********************************************************************

 Orbital symmetries:
       Occupied  (A') (A') (A') (A') (A') (A') (A') (A') (A') (A')
                 (A') (A') (A') (A') (A') (A') (A') (A') (A') (A')
                 (A') (A') (A') (A') (A") (A') (A") (A") (A")
       Virtual   (A") (A") (A") (A') (A') (A') (A") (A') (A') (A')
                 (A') (A') (A') (A') (A') (A') (A') (A') (A') (A')
                 (A') (A') (A') (A") (A") (A') (A') (A") (A') (A")
                 (A") (A') (A') (A') (A') (A") (A') (A") (A") (A')
                 (A') (A') (A') (A') (A') (A') (A') (A') (A') (A')
                 (A') (A') (A') (A') (A') (A') (A') (A') (A') (A')
                 (A") (A") (A') (A") (A') (A') (A") (A") (A") (A")
                 (A") (A") (A') (A') (A') (A') (A') (A") (A') (A')
                 (A') (A") (A") (A') (A') (A') (A') (A") (A') (A')
                 (A") (A') (A') (A") (A') (A") (A') (A') (A') (A')
                 (A') (A') (A') (A') (A') (A') (A') (A') (A') (A')
                 (A')
 The electronic state is 1-A'.
 Alpha  occ. eigenvalues --  -10.20354 -10.20303 -10.20214 -10.19771 -10.19700
 Alpha  occ. eigenvalues --  -10.19664 -10.18860 -10.18335  -0.81033  -0.78391
 Alpha  occ. eigenvalues --   -0.74750  -0.71144  -0.64693  -0.59497  -0.55577
 Alpha  occ. eigenvalues --   -0.51996  -0.48493  -0.45448  -0.45188  -0.43272
 Alpha  occ. eigenvalues --   -0.42109  -0.38758  -0.36608  -0.33612  -0.33346
 Alpha  occ. eigenvalues --   -0.30518  -0.30190  -0.25608  -0.20793
 Alpha virt. eigenvalues --   -0.06431   0.00726   0.07072   0.08707   0.09916
 Alpha virt. eigenvalues --    0.11077   0.11750   0.13003   0.14731   0.16926
 Alpha virt. eigenvalues --    0.17039   0.19629   0.21552   0.22286   0.25384
 Alpha virt. eigenvalues --    0.29194   0.30877   0.33030   0.37542   0.39022
 Alpha virt. eigenvalues --    0.42317   0.47780   0.49151   0.51901   0.53989
 Alpha virt. eigenvalues --    0.54339   0.57370   0.57852   0.60575   0.62028
 Alpha virt. eigenvalues --    0.64538   0.64761   0.66473   0.67052   0.67528
 Alpha virt. eigenvalues --    0.67834   0.68415   0.70376   0.70804   0.82499
 Alpha virt. eigenvalues --    0.83938   0.85095   0.86376   0.87548   0.88713
 Alpha virt. eigenvalues --    0.90217   0.90688   0.91199   0.93002   0.95767
 Alpha virt. eigenvalues --    0.96261   0.97797   1.04202   1.07256   1.09568
 Alpha virt. eigenvalues --    1.11074   1.12582   1.19499   1.23833   1.24673
 Alpha virt. eigenvalues --    1.30552   1.34305   1.35838   1.37656   1.42525
 Alpha virt. eigenvalues --    1.48783   1.50878   1.51427   1.53736   1.59882
 Alpha virt. eigenvalues --    1.70693   1.72818   1.73254   1.76767   1.80396
 Alpha virt. eigenvalues --    1.90296   1.91927   1.94234   1.99751   2.01561
 Alpha virt. eigenvalues --    2.04546   2.04552   2.09909   2.13419   2.14679
 Alpha virt. eigenvalues --    2.19761   2.22113   2.23263   2.23782   2.33065
 Alpha virt. eigenvalues --    2.41144   2.43587   2.48534   2.49816   2.50702
 Alpha virt. eigenvalues --    2.55836   2.55937   2.66595   2.78130   2.88591
 Alpha virt. eigenvalues --    2.97210   3.04855   3.15517   4.02449   4.05118
 Alpha virt. eigenvalues --    4.09120   4.17181   4.18395   4.38743   4.48402
 Alpha virt. eigenvalues --    4.57515
          Condensed to atoms (all electrons):
              1          2          3          4          5          6
     1  C    5.064780   0.361018   0.371478   0.655282  -0.057485  -0.036347
     2  H    0.361018   0.567156  -0.042123  -0.032170   0.006707  -0.006534
     3  H    0.371478  -0.042123   0.539380  -0.018355  -0.010450   0.003577
     4  C    0.655282  -0.032170  -0.018355   4.787153   0.349763   0.399407
     5  H   -0.057485   0.006707  -0.010450   0.349763   0.653253  -0.057742
     6  C   -0.036347  -0.006534   0.003577   0.399407  -0.057742   4.934056
     7  H    0.003895  -0.000076  -0.000078  -0.034281  -0.007156   0.366354
     8  C   -0.012425   0.002706  -0.000069  -0.030481   0.007697   0.618373
     9  H    0.002570   0.001973  -0.000062  -0.009578   0.000298  -0.053374
    10  C    0.000133  -0.000052   0.000001   0.005409  -0.000398  -0.030878
    11  H   -0.000005   0.000008   0.000000  -0.000386   0.000010   0.007585
    12  C    0.000001   0.000000   0.000000   0.000191  -0.000009  -0.013658
    13  H    0.000000   0.000000   0.000000  -0.000045   0.000008   0.002271
    14  C    0.000000   0.000000   0.000000   0.000001   0.000000  -0.000043
    15  H    0.000000   0.000000   0.000000   0.000000   0.000000   0.000006
    16  C    0.000000   0.000000   0.000000   0.000000   0.000000  -0.000001
    17  H    0.000000   0.000000   0.000000   0.000000   0.000000   0.000001
    18  H    0.000000   0.000000   0.000000   0.000000   0.000000   0.000000
              7          8          9         10         11         12
     1  C    0.003895  -0.012425   0.002570   0.000133  -0.000005   0.000001
     2  H   -0.000076   0.002706   0.001973  -0.000052   0.000008   0.000000
     3  H   -0.000078  -0.000069  -0.000062   0.000001   0.000000   0.000000
     4  C   -0.034281  -0.030481  -0.009578   0.005409  -0.000386   0.000191
     5  H   -0.007156   0.007697   0.000298  -0.000398   0.000010  -0.000009
     6  C    0.366354   0.618373  -0.053374  -0.030878   0.007585  -0.013658
     7  H    0.577791  -0.052581   0.005490  -0.010405   0.000297   0.002705
     8  C   -0.052581   4.930769   0.366460   0.388092  -0.058390  -0.029425
     9  H    0.005490   0.366460   0.575749  -0.033210  -0.006858   0.003932
    10  C   -0.010405   0.388092  -0.033210   4.881661   0.354623   0.619983
    11  H    0.000297  -0.058390  -0.006858   0.354623   0.646834  -0.060828
    12  C    0.002705  -0.029425   0.003932   0.619983  -0.060828   4.984346
    13  H    0.001812  -0.005200  -0.000072  -0.050811   0.006489   0.355916
    14  C   -0.000013   0.003435  -0.000071  -0.019863  -0.013652   0.409855
    15  H    0.000006  -0.000221   0.000002   0.006884   0.000566  -0.059724
    16  C    0.000001   0.000077   0.000000  -0.013033   0.001835  -0.036158
    17  H    0.000000  -0.000093   0.000005   0.003095   0.003067  -0.007114
    18  H    0.000000   0.000002   0.000000   0.000006  -0.000070   0.003630
             13         14         15         16         17         18
     1  C    0.000000   0.000000   0.000000   0.000000   0.000000   0.000000
     2  H    0.000000   0.000000   0.000000   0.000000   0.000000   0.000000
     3  H    0.000000   0.000000   0.000000   0.000000   0.000000   0.000000
     4  C   -0.000045   0.000001   0.000000   0.000000   0.000000   0.000000
     5  H    0.000008   0.000000   0.000000   0.000000   0.000000   0.000000
     6  C    0.002271  -0.000043   0.000006  -0.000001   0.000001   0.000000
     7  H    0.001812  -0.000013   0.000006   0.000001   0.000000   0.000000
     8  C   -0.005200   0.003435  -0.000221   0.000077  -0.000093   0.000002
     9  H   -0.000072  -0.000071   0.000002   0.000000   0.000005   0.000000
    10  C   -0.050811  -0.019863   0.006884  -0.013033   0.003095   0.000006
    11  H    0.006489  -0.013652   0.000566   0.001835   0.003067  -0.000070
    12  C    0.355916   0.409855  -0.059724  -0.036158  -0.007114   0.003630
    13  H    0.589368  -0.036097  -0.006620   0.004011  -0.000063  -0.000079
    14  C   -0.036097   4.758536   0.352283   0.655181  -0.031333  -0.017408
    15  H   -0.006620   0.352283   0.650617  -0.056746   0.006670  -0.010110
    16  C    0.004011   0.655181  -0.056746   5.069120   0.361322   0.369575
    17  H   -0.000063  -0.031333   0.006670   0.361322   0.563986  -0.042124
    18  H   -0.000079  -0.017408  -0.010110   0.369575  -0.042124   0.542657
 Mulliken atomic charges:
              1
     1  C   -0.352895
     2  H    0.141387
     3  H    0.156701
     4  C   -0.071908
     5  H    0.115506
     6  C   -0.133052
     7  H    0.146241
     8  C   -0.128724
     9  H    0.146746
    10  C   -0.101236
    11  H    0.118873
    12  C   -0.173643
    13  H    0.139112
    14  C   -0.060810
    15  H    0.116385
    16  C   -0.355185
    17  H    0.142582
    18  H    0.153921
 Sum of Mulliken atomic charges =   0.00000
 Mulliken charges with hydrogens summed into heavy atoms:
              1
     1  C   -0.054807
     4  C    0.043598
     6  C    0.013189
     8  C    0.018022
    10  C    0.017636
    12  C   -0.034531
    14  C    0.055575
    16  C   -0.058682
 Sum of Mulliken charges with hydrogens summed into heavy atoms =   0.00000
 Electronic spatial extent (au):  <R**2>=           1896.5064
 Charge=              0.0000 electrons
 Dipole moment (field-independent basis, Debye):
    X=              0.1881    Y=              0.3425    Z=              0.0000  Tot=              0.3908
 Quadrupole moment (field-independent basis, Debye-Ang):
   XX=            -44.3389   YY=            -44.6369   ZZ=            -53.9169
   XY=             -1.5712   XZ=              0.0000   YZ=              0.0000
 Traceless Quadrupole moment (field-independent basis, Debye-Ang):
   XX=              3.2920   YY=              2.9940   ZZ=             -6.2860
   XY=             -1.5712   XZ=              0.0000   YZ=              0.0000
 Octapole moment (field-independent basis, Debye-Ang**2):
  XXX=              3.5402  YYY=              0.2337  ZZZ=              0.0000  XYY=             -0.4662
  XXY=              1.0613  XXZ=              0.0000  XZZ=              0.0589  YZZ=              0.3679
  YYZ=              0.0000  XYZ=              0.0000
 Hexadecapole moment (field-independent basis, Debye-Ang**3):
 XXXX=          -1417.4438 YYYY=           -978.9860 ZZZZ=            -56.2000 XXXY=           -479.7075
 XXXZ=              0.0000 YYYX=           -486.8601 YYYZ=              0.0000 ZZZX=              0.0000
 ZZZY=              0.0000 XXYY=           -384.4682 XXZZ=           -295.4440 YYZZ=           -204.1592
 XXYZ=              0.0000 YYXZ=              0.0000 ZZXY=           -199.6179
 N-N= 2.947868716865D+02 E-N=-1.307755358418D+03  KE= 3.074343205650D+02
 Symmetry A'   KE= 2.989922307329D+02
 Symmetry A"   KE= 8.442089832097D+00
 Calling FoFJK, ICntrl=      2127 FMM=F ISym2X=1 I1Cent= 0 IOpClX= 0 NMat=1 NMatS=1 NMatT=0.
 ***** Axes restored to original set *****
 -------------------------------------------------------------------
 Center     Atomic                   Forces (Hartrees/Bohr)
 Number     Number              X              Y              Z
 -------------------------------------------------------------------
      1        6           0.042513974   -0.009505845    0.000000000
      2        1          -0.004046216    0.013526199    0.000000000
      3        1          -0.009494343   -0.002414644    0.000000000
      4        6           0.033481704   -0.032433301    0.000000000
      5        1          -0.029226970   -0.015718068    0.000000000
      6        6          -0.049908137    0.067958220    0.000000000
      7        1          -0.001819017   -0.012513613    0.000000000
      8        6           0.052160869   -0.066624443    0.000000000
      9        1           0.001320332    0.012219433    0.000000000
     10        6          -0.051069878    0.032478334    0.000000000
     11        1           0.028600726    0.014792960    0.000000000
     12        6          -0.002880679    0.063474611    0.000000000
     13        1           0.007648591   -0.012361956    0.000000000
     14        6          -0.019727124   -0.038778712    0.000000000
     15        1           0.030494654   -0.003920602    0.000000000
     16        6          -0.035938426   -0.024979777    0.000000000
     17        1          -0.001736000    0.013699369    0.000000000
     18        1           0.009625942    0.001101834    0.000000000
 -------------------------------------------------------------------
 Cartesian Forces:  Max     0.067958220 RMS     0.025104893

 GradGradGradGradGradGradGradGradGradGradGradGradGradGradGradGradGradGrad
 Berny optimization.
 Internal  Forces:  Max     0.049821247 RMS     0.017763815
 Search for a local minimum.
 Step number   1 out of a maximum of   79
 All quantities printed in internal units (Hartrees-Bohrs-Radians)
 Mixed Optimization -- RFO/linear search
 Second derivative matrix not updated -- first step.
 ITU=  0
     Eigenvalues ---    0.00237   0.00237   0.00237   0.01459   0.01463
     Eigenvalues ---    0.01463   0.01623   0.01623   0.01628   0.02681
     Eigenvalues ---    0.02681   0.02681   0.02681   0.02681   0.02681
     Eigenvalues ---    0.16000   0.16000   0.16000   0.16000   0.16000
     Eigenvalues ---    0.16000   0.16000   0.16000   0.16000   0.16000
     Eigenvalues ---    0.22000   0.22000   0.22000   0.22000   0.22000
     Eigenvalues ---    0.22000   0.28519   0.28519   0.28519   0.37230
     Eigenvalues ---    0.37230   0.37230   0.37230   0.37230   0.37230
     Eigenvalues ---    0.37230   0.37230   0.37230   0.37230   0.53930
     Eigenvalues ---    0.53930   0.53930   0.53930
 RFO step:  Lambda=-7.21953200D-02 EMin= 2.36824102D-03
 Linear search not attempted -- first point.
 Maximum step size (   0.300) exceeded in Quadratic search.
    -- Step size scaled by   0.600
 Iteration  1 RMS(Cart)=  0.07356316 RMS(Int)=  0.00143971
 Iteration  2 RMS(Cart)=  0.00369467 RMS(Int)=  0.00000096
 Iteration  3 RMS(Cart)=  0.00000194 RMS(Int)=  0.00000000
 Iteration  4 RMS(Cart)=  0.00000000 RMS(Int)=  0.00000000
 ClnCor:  largest displacement from symmetrization is 2.10D-11 for atom    16.
 Variable       Old X    -DE/DX   Delta X   Delta X   Delta X     New X
                                 (Linear)    (Quad)   (Total)
    R1        2.02201   0.01295   0.00000   0.01747   0.01747   2.03948
    R2        2.02201   0.00968   0.00000   0.01306   0.01306   2.03507
    R3        2.56096  -0.02219   0.00000  -0.02176  -0.02176   2.53920
    R4        2.02201   0.01905   0.00000   0.02570   0.02570   2.04771
    R5        2.91018  -0.03323   0.00000  -0.05575  -0.05575   2.85443
    R6        2.02201   0.00995   0.00000   0.01342   0.01342   2.03542
    R7        2.56096   0.00164   0.00000   0.00161   0.00161   2.56257
    R8        2.02201   0.00998   0.00000   0.01346   0.01346   2.03547
    R9        2.91018  -0.03526   0.00000  -0.05915  -0.05915   2.85103
   R10        2.02201   0.01844   0.00000   0.02488   0.02488   2.04689
   R11        2.56096  -0.00888   0.00000  -0.00870  -0.00870   2.55225
   R12        2.02201   0.01130   0.00000   0.01524   0.01524   2.03724
   R13        2.91018  -0.03630   0.00000  -0.06089  -0.06089   2.84929
   R14        2.02201   0.01859   0.00000   0.02508   0.02508   2.04708
   R15        2.56096  -0.02290   0.00000  -0.02246  -0.02246   2.53850
   R16        2.02201   0.01278   0.00000   0.01724   0.01724   2.03924
   R17        2.02201   0.00962   0.00000   0.01297   0.01297   2.03498
    A1        2.09241  -0.00479   0.00000  -0.01238  -0.01238   2.08003
    A2        2.09836   0.00655   0.00000   0.01691   0.01691   2.11527
    A3        2.09241  -0.00176   0.00000  -0.00453  -0.00453   2.08788
    A4        2.09836  -0.00512   0.00000  -0.02507  -0.02507   2.07328
    A5        2.49609  -0.04470   0.00000  -0.09173  -0.09173   2.40436
    A6        1.68874   0.04982   0.00000   0.11680   0.11680   1.80554
    A7        2.09241  -0.01893   0.00000  -0.04304  -0.04304   2.04938
    A8        2.09836   0.02207   0.00000   0.04529   0.04529   2.14365
    A9        2.09241  -0.00314   0.00000  -0.00225  -0.00225   2.09016
   A10        2.09836  -0.00421   0.00000  -0.00480  -0.00480   2.09355
   A11        2.09241   0.02293   0.00000   0.04706   0.04706   2.13947
   A12        2.09241  -0.01872   0.00000  -0.04225  -0.04225   2.05016
   A13        1.69737   0.04788   0.00000   0.11239   0.11239   1.80977
   A14        2.49340  -0.04239   0.00000  -0.08698  -0.08698   2.40642
   A15        2.09241  -0.00549   0.00000  -0.02542  -0.02542   2.06700
   A16        2.09836   0.00155   0.00000   0.00808   0.00808   2.10643
   A17        2.09241   0.01541   0.00000   0.03162   0.03162   2.12404
   A18        2.09241  -0.01696   0.00000  -0.03970  -0.03970   2.05272
   A19        1.69737   0.04659   0.00000   0.10872   0.10872   1.80610
   A20        2.49340  -0.04366   0.00000  -0.08958  -0.08958   2.40381
   A21        2.09241  -0.00293   0.00000  -0.01914  -0.01914   2.07327
   A22        2.09836   0.00628   0.00000   0.01623   0.01623   2.11459
   A23        2.09241  -0.00196   0.00000  -0.00507  -0.00507   2.08734
   A24        2.09241  -0.00432   0.00000  -0.01116  -0.01116   2.08126
    D1        3.14159   0.00000   0.00000   0.00000   0.00000   3.14159
    D2        0.00000   0.00000   0.00000   0.00000   0.00000   0.00000
    D3        0.00000   0.00000   0.00000   0.00000   0.00000   0.00000
    D4        3.14159   0.00000   0.00000   0.00000   0.00000   3.14159
    D5        3.14159   0.00000   0.00000   0.00000   0.00000   3.14159
    D6        0.00000   0.00000   0.00000   0.00000   0.00000   0.00000
    D7        0.00000   0.00000   0.00000   0.00000   0.00000   0.00000
    D8        3.14159   0.00000   0.00000   0.00000   0.00000   3.14159
    D9        0.00000   0.00000   0.00000   0.00000   0.00000   0.00000
   D10        3.14159   0.00000   0.00000   0.00000   0.00000   3.14159
   D11        3.14159   0.00000   0.00000   0.00000   0.00000   3.14159
   D12        0.00000   0.00000   0.00000   0.00000   0.00000   0.00000
   D13        3.14159   0.00000   0.00000   0.00000   0.00000   3.14159
   D14        0.00000   0.00000   0.00000   0.00000   0.00000   0.00000
   D15        0.00000   0.00000   0.00000   0.00000   0.00000   0.00000
   D16        3.14159   0.00000   0.00000   0.00000   0.00000   3.14159
   D17        0.00000   0.00000   0.00000   0.00000   0.00000   0.00000
   D18        3.14159   0.00000   0.00000   0.00000   0.00000   3.14159
   D19        3.14159   0.00000   0.00000   0.00000   0.00000   3.14159
   D20        0.00000   0.00000   0.00000   0.00000   0.00000   0.00000
   D21        3.14159   0.00000   0.00000   0.00000   0.00000   3.14159
   D22        0.00000   0.00000   0.00000   0.00000   0.00000   0.00000
   D23        0.00000   0.00000   0.00000   0.00000   0.00000   0.00000
   D24        3.14159   0.00000   0.00000   0.00000   0.00000   3.14159
   D25        0.00000   0.00000   0.00000   0.00000   0.00000   0.00000
   D26        3.14159   0.00000   0.00000   0.00000   0.00000   3.14159
   D27        3.14159   0.00000   0.00000   0.00000   0.00000   3.14159
   D28        0.00000   0.00000   0.00000   0.00000   0.00000   0.00000
         Item               Value     Threshold  Converged?
 Maximum Force            0.049821     0.000450     NO 
 RMS     Force            0.017764     0.000300     NO 
 Maximum Displacement     0.234661     0.001800     NO 
 RMS     Displacement     0.075135     0.001200     NO 
 Predicted change in Energy=-3.355892D-02
 GradGradGradGradGradGradGradGradGradGradGradGradGradGradGradGradGradGrad

                          Input orientation:                          
 ---------------------------------------------------------------------
 Center     Atomic      Atomic             Coordinates (Angstroms)
 Number     Number       Type             X           Y           Z
 ---------------------------------------------------------------------
      1          6           0       -6.160339   -1.188102    0.000000
      2          1           0       -6.005117   -0.120078    0.000000
      3          1           0       -7.166341   -1.572417    0.000000
      4          6           0       -5.122999   -2.042164    0.000000
      5          1           0       -5.323720   -3.107011    0.000000
      6          6           0       -3.614273   -1.969029    0.000000
      7          1           0       -3.072539   -2.899978    0.000000
      8          6           0       -2.935288   -0.795206    0.000000
      9          1           0       -3.473875    0.137595    0.000000
     10          6           0       -1.428067   -0.728454    0.000000
     11          1           0       -1.218493    0.334243    0.000000
     12          6           0       -0.387211   -1.589108    0.000000
     13          1           0       -0.553938   -2.654201    0.000000
     14          6           0        1.040841   -1.105313    0.000000
     15          1           0        1.618044   -2.021999    0.000000
     16          6           0        1.692362    0.069428    0.000000
     17          1           0        1.155575    1.005571    0.000000
     18          1           0        2.769172    0.080381    0.000000
 ---------------------------------------------------------------------
                    Distance matrix (angstroms):
                    1          2          3          4          5
     1  C    0.000000
     2  H    1.079245   0.000000
     3  H    1.076911   1.859497   0.000000
     4  C    1.343688   2.114840   2.096642   0.000000
     5  H    2.093357   3.063669   2.397964   1.083599   0.000000
     6  C    2.663137   3.022376   3.574141   1.510497   2.053584
     7  H    3.530585   4.040775   4.303677   2.222664   2.260681
     8  C    3.248895   3.143190   4.301844   2.518130   3.324010
     9  H    2.995757   2.544323   4.069206   2.733305   3.734888
    10  C    4.754543   4.617305   5.800005   3.921525   4.564389
    11  H    5.171013   4.808136   6.245978   4.570829   5.356782
    12  C    5.787038   5.806799   6.779150   4.757410   5.164605
    13  H    5.794927   6.011417   6.700308   4.609871   4.791227
    14  C    7.201656   7.114507   8.220463   6.234631   6.671913
    15  H    7.822955   7.856837   8.795882   6.741073   7.026047
    16  C    7.952754   7.699811   9.009565   7.134982   7.701634
    17  H    7.637722   7.248627   8.712078   6.979196   7.674281
    18  H    9.019158   8.776578  10.072048   8.172610   8.697951
                    6          7          8          9         10
     6  C    0.000000
     7  H    1.077099   0.000000
     8  C    1.356053   2.109242   0.000000
     9  H    2.111298   3.063972   1.077123   0.000000
    10  C    2.513668   2.723932   1.508699   2.221570   0.000000
    11  H    3.323376   3.727959   2.055005   2.263939   1.083165
    12  C    3.249349   2.988204   2.668891   3.536806   1.350595
    13  H    3.136099   2.530565   3.021042   4.039821   2.114853
    14  C    4.734564   4.487841   3.988204   4.682679   2.497505
    15  H    5.232585   4.772045   4.715703   5.530957   3.309388
    16  C    5.684689   5.614415   4.707732   5.166687   3.220822
    17  H    5.621361   5.755889   4.469671   4.710115   3.111598
    18  H    6.704361   6.558058   5.771267   6.243309   4.274462
                   11         12         13         14         15
    11  H    0.000000
    12  C    2.095307   0.000000
    13  H    3.061443   1.078063   0.000000
    14  C    2.678976   1.507777   2.223145   0.000000
    15  H    3.687522   2.051449   2.262119   1.083270   0.000000
    16  C    2.922876   2.659956   3.530441   1.343315   2.092746
    17  H    2.467160   3.018700   4.039351   2.114000   3.062687
    18  H    3.995737   3.570707   4.303602   2.095948   2.396893
                   16         17         18
    16  C    0.000000
    17  H    1.079122   0.000000
    18  H    1.076865   1.860019   0.000000
 Stoichiometry    C8H10
 Framework group  CS[SG(C8H10)]
 Deg. of freedom    33
 Full point group                 CS      NOp   2
 Largest Abelian subgroup         CS      NOp   2
 Largest concise Abelian subgroup C1      NOp   1
                         Standard orientation:                         
 ---------------------------------------------------------------------
 Center     Atomic      Atomic             Coordinates (Angstroms)
 Number     Number       Type             X           Y           Z
 ---------------------------------------------------------------------
      1          6           0        2.094984    3.458945    0.000000
      2          1           0        2.922206    2.765784    0.000000
      3          1           0        2.296476    4.516838    0.000000
      4          6           0        0.823308    3.024966    0.000000
      5          1           0        0.022692    3.755173    0.000000
      6          6           0        0.092931    1.702790    0.000000
      7          1           0       -0.983801    1.730908    0.000000
      8          6           0        0.735018    0.508384    0.000000
      9          1           0        1.811672    0.476615    0.000000
     10          6           0        0.000000   -0.809160    0.000000
     11          1           0        0.794136   -1.545770    0.000000
     12          6           0       -1.279132   -1.242667    0.000000
     13          1           0       -2.097816   -0.541257    0.000000
     14          6           0       -1.617702   -2.711939    0.000000
     15          1           0       -2.700930   -2.721494    0.000000
     16          6           0       -0.960406   -3.883458    0.000000
     17          1           0        0.118147   -3.918514    0.000000
     18          1           0       -1.516786   -4.805456    0.000000
 ---------------------------------------------------------------------
 Rotational constants (GHZ):     10.9335767      0.6334942      0.5987996
 Standard basis: 6-31G(d) (6D, 7F)
 There are   108 symmetry adapted basis functions of A'  symmetry.
 There are    32 symmetry adapted basis functions of A"  symmetry.
 Integral buffers will be    131072 words long.
 Raffenetti 2 integral format.
 Two-electron integral symmetry is turned on.
   140 basis functions,   264 primitive gaussians,   140 cartesian basis functions
    29 alpha electrons       29 beta electrons
       nuclear repulsion energy       297.8651375178 Hartrees.
 NAtoms=   18 NActive=   18 NUniq=   18 SFac= 1.00D+00 NAtFMM=   60 NAOKFM=F Big=F
 One-electron integrals computed using PRISM.
 NBasis=   140 RedAO= T  NBF=   108    32
 NBsUse=   140 1.00D-06 NBFU=   108    32
 Initial guess read from the read-write file.
 B after Tr=     0.000000    0.000000    0.000000
         Rot=    1.000000    0.000000    0.000000    0.000000 Ang=   0.00 deg.
 Initial guess orbital symmetries:
       Occupied  (A') (A') (A') (A') (A') (A') (A') (A') (A') (A')
                 (A') (A') (A') (A') (A') (A') (A') (A') (A') (A')
                 (A') (A') (A') (A') (A") (A') (A") (A") (A")
       Virtual   (A") (A") (A") (A') (A') (A') (A") (A') (A') (A')
                 (A') (A') (A') (A') (A') (A') (A') (A') (A') (A')
                 (A') (A') (A') (A") (A") (A') (A') (A") (A') (A")
                 (A") (A') (A') (A') (A') (A") (A') (A") (A") (A')
                 (A') (A') (A') (A') (A') (A') (A') (A') (A') (A')
                 (A') (A') (A') (A') (A') (A') (A') (A') (A') (A')
                 (A") (A") (A') (A") (A') (A') (A") (A") (A") (A")
                 (A") (A") (A') (A') (A') (A') (A') (A") (A') (A')
                 (A') (A") (A") (A') (A') (A') (A') (A") (A') (A')
                 (A") (A') (A') (A") (A') (A") (A') (A') (A') (A')
                 (A') (A') (A') (A') (A') (A') (A') (A') (A') (A')
                 (A')
 Harris functional with IExCor=  402 diagonalized for initial guess.
 ExpMin= 1.61D-01 ExpMax= 3.05D+03 ExpMxC= 4.57D+02 IAcc=1 IRadAn=         1 AccDes= 0.00D+00
 HarFok:  IExCor=  402 AccDes= 0.00D+00 IRadAn=         1 IDoV= 1
 ScaDFX=  1.000000  1.000000  1.000000  1.000000
 FoFCou: FMM=F IPFlag=           0 FMFlag=      100000 FMFlg1=           0
         NFxFlg=           0 DoJE=T BraDBF=F KetDBF=T FulRan=T
         Omega=  0.000000  0.000000  1.000000  0.000000  0.000000 ICntrl=     500 IOpCl=  0
         NMat0=    1 NMatS0=    1 NMatT0=    0 NMatD0=    1 NMtDS0=    0 NMtDT0=    0
         I1Cent=           4 NGrid=           0.
 Petite list used in FoFCou.
 Requested convergence on RMS density matrix=1.00D-08 within 128 cycles.
 Requested convergence on MAX density matrix=1.00D-06.
 Requested convergence on             energy=1.00D-06.
 No special actions if energy rises.
 Integral accuracy reduced to 1.0D-05 until final iterations.
 Initial convergence to 1.0D-05 achieved.  Increase integral accuracy.
 SCF Done:  E(RB3LYP) =  -310.763749210     A.U. after   14 cycles
             Convg  =    0.8131D-08             -V/T =  2.0106
 Calling FoFJK, ICntrl=      2127 FMM=F ISym2X=1 I1Cent= 0 IOpClX= 0 NMat=1 NMatS=1 NMatT=0.
 ***** Axes restored to original set *****
 -------------------------------------------------------------------
 Center     Atomic                   Forces (Hartrees/Bohr)
 Number     Number              X              Y              Z
 -------------------------------------------------------------------
      1        6           0.022279960   -0.000923314    0.000000000
      2        1          -0.003188616    0.006556971    0.000000000
      3        1          -0.005537874    0.000449334    0.000000000
      4        6           0.028696248   -0.029353632    0.000000000
      5        1          -0.016274352   -0.004639610    0.000000000
      6        6          -0.035517194    0.041763123    0.000000000
      7        1          -0.000220644   -0.006888555    0.000000000
      8        6           0.038019635   -0.041538653    0.000000000
      9        1           0.000008320    0.006742579    0.000000000
     10        6          -0.038173934    0.027079952    0.000000000
     11        1           0.016021662    0.004507245    0.000000000
     12        6           0.004017640    0.037062931    0.000000000
     13        1           0.003269604   -0.006684231    0.000000000
     14        6          -0.015050701   -0.035905872    0.000000000
     15        1           0.016304515    0.001259675    0.000000000
     16        6          -0.020175015   -0.008929747    0.000000000
     17        1           0.000548843    0.007112630    0.000000000
     18        1           0.004971903    0.002329175    0.000000000
 -------------------------------------------------------------------
 Cartesian Forces:  Max     0.041763123 RMS     0.016714407

 GradGradGradGradGradGradGradGradGradGradGradGradGradGradGradGradGradGrad
 Berny optimization.
 Using GEDIIS/GDIIS optimizer.
 Internal  Forces:  Max     0.030769939 RMS     0.011173704
 Search for a local minimum.
 Step number   2 out of a maximum of   79
 All quantities printed in internal units (Hartrees-Bohrs-Radians)
 Mixed Optimization -- RFO/linear search
 Update second derivatives using D2CorX and points    1    2
 DE= -3.53D-02 DEPred=-3.36D-02 R= 1.05D+00
 SS=  1.41D+00  RLast= 3.00D-01 DXNew= 5.0454D-01 9.0000D-01
 Trust test= 1.05D+00 RLast= 3.00D-01 DXMaxT set to 5.05D-01
 ITU=  1  0
 Use linear search instead of GDIIS.
     Eigenvalues ---    0.00237   0.00237   0.00237   0.01486   0.01488
     Eigenvalues ---    0.01496   0.01581   0.01586   0.01586   0.02681
     Eigenvalues ---    0.02681   0.02681   0.02681   0.02681   0.02681
     Eigenvalues ---    0.14787   0.16000   0.16000   0.16000   0.16000
     Eigenvalues ---    0.16000   0.16000   0.16000   0.16000   0.16968
     Eigenvalues ---    0.17884   0.22000   0.22000   0.22000   0.22000
     Eigenvalues ---    0.22390   0.27227   0.28519   0.28619   0.37168
     Eigenvalues ---    0.37230   0.37230   0.37230   0.37230   0.37230
     Eigenvalues ---    0.37230   0.37230   0.37230   0.38410   0.53919
     Eigenvalues ---    0.53930   0.53930   0.56097
 RFO step:  Lambda=-5.87414350D-03 EMin= 2.36824102D-03
 Quartic linear search produced a step of  1.54984.
 Iteration  1 RMS(Cart)=  0.16760027 RMS(Int)=  0.00564327
 Iteration  2 RMS(Cart)=  0.01598211 RMS(Int)=  0.00001489
 Iteration  3 RMS(Cart)=  0.00002883 RMS(Int)=  0.00000000
 Iteration  4 RMS(Cart)=  0.00000000 RMS(Int)=  0.00000000
 ClnCor:  largest displacement from symmetrization is 6.67D-10 for atom     3.
 Variable       Old X    -DE/DX   Delta X   Delta X   Delta X     New X
                                 (Linear)    (Quad)   (Total)
    R1        2.03948   0.00603   0.02708  -0.01097   0.01610   2.05558
    R2        2.03507   0.00501   0.02024  -0.00482   0.01542   2.05049
    R3        2.53920  -0.00659  -0.03372   0.03002  -0.00370   2.53550
    R4        2.04771   0.00757   0.03983  -0.02489   0.01493   2.06264
    R5        2.85443  -0.02459  -0.08641  -0.04193  -0.12833   2.72609
    R6        2.03542   0.00584   0.02079  -0.00028   0.02051   2.05593
    R7        2.56257  -0.00115   0.00250  -0.00986  -0.00736   2.55521
    R8        2.03547   0.00584   0.02086  -0.00046   0.02040   2.05587
    R9        2.85103  -0.02701  -0.09167  -0.05247  -0.14414   2.70689
   R10        2.04689   0.00752   0.03856  -0.02282   0.01574   2.06263
   R11        2.55225  -0.00231  -0.01349   0.01352   0.00004   2.55229
   R12        2.03724   0.00610   0.02361  -0.00393   0.01968   2.05693
   R13        2.84929  -0.02365  -0.09437  -0.01767  -0.11205   2.73724
   R14        2.04708   0.00762   0.03887  -0.02272   0.01614   2.06323
   R15        2.53850  -0.00666  -0.03481   0.03166  -0.00314   2.53535
   R16        2.03924   0.00590   0.02672  -0.01120   0.01551   2.05476
   R17        2.03498   0.00500   0.02011  -0.00467   0.01543   2.05041
    A1        2.08003  -0.00441  -0.01919  -0.02304  -0.04223   2.03781
    A2        2.11527   0.00395   0.02621  -0.00049   0.02573   2.14100
    A3        2.08788   0.00047  -0.00703   0.02353   0.01650   2.10438
    A4        2.07328  -0.00022  -0.03886   0.03908   0.00022   2.07351
    A5        2.40436  -0.03055  -0.14216  -0.04174  -0.18391   2.22045
    A6        1.80554   0.03077   0.18102   0.00266   0.18368   1.98923
    A7        2.04938  -0.00976  -0.06670   0.02318  -0.04353   2.00585
    A8        2.14365   0.01207   0.07019  -0.01335   0.05684   2.20049
    A9        2.09016  -0.00231  -0.00349  -0.00982  -0.01331   2.07685
   A10        2.09355  -0.00311  -0.00745  -0.01105  -0.01849   2.07506
   A11        2.13947   0.01311   0.07293  -0.00750   0.06543   2.20490
   A12        2.05016  -0.00999  -0.06548   0.01854  -0.04694   2.00322
   A13        1.80977   0.03004   0.17419   0.00832   0.18252   1.99228
   A14        2.40642  -0.02968  -0.13480  -0.04761  -0.18241   2.22401
   A15        2.06700  -0.00036  -0.03939   0.03928  -0.00011   2.06689
   A16        2.10643  -0.00110   0.01252  -0.02873  -0.01621   2.09022
   A17        2.12404   0.01088   0.04901   0.01835   0.06735   2.19139
   A18        2.05272  -0.00978  -0.06152   0.01038  -0.05114   2.00158
   A19        1.80610   0.02961   0.16850   0.01561   0.18411   1.99021
   A20        2.40381  -0.02961  -0.13884  -0.03818  -0.17702   2.22679
   A21        2.07327  -0.00001  -0.02967   0.02257  -0.00709   2.06618
   A22        2.11459   0.00391   0.02515   0.00148   0.02663   2.14122
   A23        2.08734   0.00036  -0.00786   0.02383   0.01597   2.10331
   A24        2.08126  -0.00427  -0.01729  -0.02531  -0.04260   2.03866
    D1        3.14159   0.00000   0.00000   0.00000   0.00000   3.14159
    D2        0.00000   0.00000   0.00000   0.00000   0.00000   0.00000
    D3        0.00000   0.00000   0.00000   0.00000   0.00000   0.00000
    D4        3.14159   0.00000   0.00000   0.00000   0.00000   3.14159
    D5        3.14159   0.00000   0.00000   0.00000   0.00000   3.14159
    D6        0.00000   0.00000   0.00000   0.00000   0.00000   0.00000
    D7        0.00000   0.00000   0.00000   0.00000   0.00000   0.00000
    D8        3.14159   0.00000   0.00000   0.00000   0.00000   3.14159
    D9        0.00000   0.00000   0.00000   0.00000   0.00000   0.00000
   D10        3.14159   0.00000   0.00000   0.00000   0.00000   3.14159
   D11        3.14159   0.00000   0.00000   0.00000   0.00000   3.14159
   D12        0.00000   0.00000   0.00000   0.00000   0.00000   0.00000
   D13        3.14159   0.00000   0.00000   0.00000   0.00000   3.14159
   D14        0.00000   0.00000   0.00000   0.00000   0.00000   0.00000
   D15        0.00000   0.00000   0.00000   0.00000   0.00000   0.00000
   D16        3.14159   0.00000   0.00000   0.00000   0.00000   3.14159
   D17        0.00000   0.00000   0.00000   0.00000   0.00000   0.00000
   D18        3.14159   0.00000   0.00000   0.00000   0.00000   3.14159
   D19        3.14159   0.00000   0.00000   0.00000   0.00000   3.14159
   D20        0.00000   0.00000   0.00000   0.00000   0.00000   0.00000
   D21        3.14159   0.00000   0.00000   0.00000   0.00000   3.14159
   D22        0.00000   0.00000   0.00000   0.00000   0.00000   0.00000
   D23        0.00000   0.00000   0.00000   0.00000   0.00000   0.00000
   D24        3.14159   0.00000   0.00000   0.00000   0.00000   3.14159
   D25        0.00000   0.00000   0.00000   0.00000   0.00000   0.00000
   D26        3.14159   0.00000   0.00000   0.00000   0.00000   3.14159
   D27        3.14159   0.00000   0.00000   0.00000   0.00000   3.14159
   D28        0.00000   0.00000   0.00000   0.00000   0.00000   0.00000
         Item               Value     Threshold  Converged?
 Maximum Force            0.030770     0.000450     NO 
 RMS     Force            0.011174     0.000300     NO 
 Maximum Displacement     0.579526     0.001800     NO 
 RMS     Displacement     0.177196     0.001200     NO 
 Predicted change in Energy=-2.582933D-02
 GradGradGradGradGradGradGradGradGradGradGradGradGradGradGradGradGradGrad

                          Input orientation:                          
 ---------------------------------------------------------------------
 Center     Atomic      Atomic             Coordinates (Angstroms)
 Number     Number       Type             X           Y           Z
 ---------------------------------------------------------------------
      1          6           0       -5.922401   -1.217476    0.000000
      2          1           0       -5.698445   -0.153015    0.000000
      3          1           0       -6.971104   -1.496053    0.000000
      4          6           0       -4.966257   -2.158764    0.000000
      5          1           0       -5.262500   -3.209297    0.000000
      6          6           0       -3.538513   -1.952357    0.000000
      7          1           0       -2.943538   -2.863206    0.000000
      8          6           0       -2.906788   -0.756840    0.000000
      9          1           0       -3.503370    0.152916    0.000000
     10          6           0       -1.490023   -0.545633    0.000000
     11          1           0       -1.195207    0.505293    0.000000
     12          6           0       -0.520022   -1.485451    0.000000
     13          1           0       -0.789498   -2.540045    0.000000
     14          6           0        0.904903   -1.225263    0.000000
     15          1           0        1.521407   -2.126360    0.000000
     16          6           0        1.518954   -0.032380    0.000000
     17          1           0        0.973981    0.908519    0.000000
     18          1           0        2.602216    0.029572    0.000000
 ---------------------------------------------------------------------
                    Distance matrix (angstroms):
                    1          2          3          4          5
     1  C    0.000000
     2  H    1.087765   0.000000
     3  H    1.085073   1.850246   0.000000
     4  C    1.341729   2.135211   2.111540   0.000000
     5  H    2.098290   3.087216   2.419614   1.091503   0.000000
     6  C    2.494589   2.811216   3.462788   1.442587   2.133549
     7  H    3.403242   3.864537   4.253281   2.141876   2.344646
     8  C    3.050591   2.856213   4.130993   2.491346   3.400577
     9  H    2.780231   2.216292   3.839828   2.735673   3.794603
    10  C    4.483007   4.226697   5.562873   3.832284   4.618083
    11  H    5.031331   4.551101   6.112804   4.617144   5.508271
    12  C    5.409022   5.347097   6.451091   4.496928   5.046063
    13  H    5.300555   5.458541   6.269145   4.194126   4.522792
    14  C    6.827309   6.689837   7.880661   5.944909   6.478677
    15  H    7.499091   7.484675   8.515870   6.487745   6.869800
    16  C    7.535132   7.218407   8.615302   6.824916   7.488720
    17  H    7.216643   6.756339   8.300984   6.685406   7.473292
    18  H    8.615349   8.302669   9.694122   7.878490   8.505530
                    6          7          8          9         10
     6  C    0.000000
     7  H    1.087953   0.000000
     8  C    1.352160   2.106686   0.000000
     9  H    2.105566   3.067638   1.087918   0.000000
    10  C    2.484992   2.735663   1.432422   2.131088   0.000000
    11  H    3.395751   3.795188   2.126615   2.334905   1.091495
    12  C    3.054389   2.787766   2.495501   3.403617   1.350614
    13  H    2.811131   2.178146   2.768165   3.823237   2.113863
    14  C    4.502512   4.182506   3.840366   4.618684   2.489491
    15  H    5.062911   4.525337   4.635137   5.517561   3.401090
    16  C    5.409647   5.284639   4.484644   5.025741   3.052437
    17  H    5.342959   5.438093   4.223007   4.540661   2.861096
    18  H    6.452643   6.254882   5.564851   6.106832   4.132467
                   11         12         13         14         15
    11  H    0.000000
    12  C    2.102127   0.000000
    13  H    3.072245   1.088479   0.000000
    14  C    2.721266   1.448485   2.144679   0.000000
    15  H    3.782274   2.139672   2.347641   1.091812   0.000000
    16  C    2.766906   2.503764   3.408421   1.341651   2.093981
    17  H    2.206347   2.821902   3.873300   2.134900   3.083856
    18  H    3.827106   3.470398   4.255192   2.110802   2.411678
                   16         17         18
    16  C    0.000000
    17  H    1.087330   0.000000
    18  H    1.085032   1.850324   0.000000
 Stoichiometry    C8H10
 Framework group  CS[SG(C8H10)]
 Deg. of freedom    33
 Full point group                 CS      NOp   2
 Largest Abelian subgroup         CS      NOp   2
 Largest concise Abelian subgroup C1      NOp   1
                         Standard orientation:                         
 ---------------------------------------------------------------------
 Center     Atomic      Atomic             Coordinates (Angstroms)
 Number     Number       Type             X           Y           Z
 ---------------------------------------------------------------------
      1          6           0        2.609784    2.770160    0.000000
      2          1           0        3.216442    1.867276    0.000000
      3          1           0        3.141535    3.716006    0.000000
      4          6           0        1.268363    2.741415    0.000000
      5          1           0        0.722102    3.686390    0.000000
      6          6           0        0.420538    1.574261    0.000000
      7          1           0       -0.647179    1.783120    0.000000
      8          6           0        0.836728    0.287745    0.000000
      9          1           0        1.904783    0.080799    0.000000
     10          6           0        0.000000   -0.874889    0.000000
     11          1           0        0.547539   -1.819115    0.000000
     12          6           0       -1.350031   -0.914590    0.000000
     13          1           0       -1.917871    0.014035    0.000000
     14          6           0       -2.157348   -2.117231    0.000000
     15          1           0       -3.233091   -1.930602    0.000000
     16          6           0       -1.730719   -3.389244    0.000000
     17          1           0       -0.676339   -3.654895    0.000000
     18          1           0       -2.441818   -4.208776    0.000000
 ---------------------------------------------------------------------
 Rotational constants (GHZ):     10.6320851      0.7016388      0.6582024
 Standard basis: 6-31G(d) (6D, 7F)
 There are   108 symmetry adapted basis functions of A'  symmetry.
 There are    32 symmetry adapted basis functions of A"  symmetry.
 Integral buffers will be    131072 words long.
 Raffenetti 2 integral format.
 Two-electron integral symmetry is turned on.
   140 basis functions,   264 primitive gaussians,   140 cartesian basis functions
    29 alpha electrons       29 beta electrons
       nuclear repulsion energy       306.0847675538 Hartrees.
 NAtoms=   18 NActive=   18 NUniq=   18 SFac= 1.00D+00 NAtFMM=   60 NAOKFM=F Big=F
 One-electron integrals computed using PRISM.
 NBasis=   140 RedAO= T  NBF=   108    32
 NBsUse=   140 1.00D-06 NBFU=   108    32
 Initial guess read from the read-write file.
 B after Tr=     0.000000    0.000000    0.000000
         Rot=    1.000000    0.000000    0.000000    0.000000 Ang=   0.00 deg.
 Initial guess orbital symmetries:
       Occupied  (A') (A') (A') (A') (A') (A') (A') (A') (A') (A')
                 (A') (A') (A') (A') (A') (A') (A') (A') (A') (A')
                 (A') (A') (A') (A') (A") (A') (A") (A") (A")
       Virtual   (A") (A") (A") (A') (A') (A') (A") (A') (A') (A')
                 (A') (A') (A') (A') (A') (A') (A') (A') (A') (A')
                 (A') (A') (A') (A") (A") (A') (A') (A") (A') (A")
                 (A') (A") (A') (A') (A') (A") (A') (A") (A") (A')
                 (A') (A') (A') (A') (A') (A') (A') (A') (A') (A')
                 (A') (A') (A') (A') (A') (A') (A') (A') (A') (A')
                 (A") (A") (A") (A') (A') (A") (A") (A') (A") (A")
                 (A") (A") (A') (A') (A') (A') (A') (A") (A') (A')
                 (A') (A") (A') (A") (A') (A') (A") (A') (A') (A')
                 (A") (A') (A') (A") (A') (A') (A") (A') (A') (A')
                 (A') (A') (A') (A') (A') (A') (A') (A') (A') (A')
                 (A')
 Harris functional with IExCor=  402 diagonalized for initial guess.
 ExpMin= 1.61D-01 ExpMax= 3.05D+03 ExpMxC= 4.57D+02 IAcc=1 IRadAn=         1 AccDes= 0.00D+00
 HarFok:  IExCor=  402 AccDes= 0.00D+00 IRadAn=         1 IDoV= 1
 ScaDFX=  1.000000  1.000000  1.000000  1.000000
 FoFCou: FMM=F IPFlag=           0 FMFlag=      100000 FMFlg1=           0
         NFxFlg=           0 DoJE=T BraDBF=F KetDBF=T FulRan=T
         Omega=  0.000000  0.000000  1.000000  0.000000  0.000000 ICntrl=     500 IOpCl=  0
         NMat0=    1 NMatS0=    1 NMatT0=    0 NMatD0=    1 NMtDS0=    0 NMtDT0=    0
         I1Cent=           4 NGrid=           0.
 Petite list used in FoFCou.
 Requested convergence on RMS density matrix=1.00D-08 within 128 cycles.
 Requested convergence on MAX density matrix=1.00D-06.
 Requested convergence on             energy=1.00D-06.
 No special actions if energy rises.
 Integral accuracy reduced to 1.0D-05 until final iterations.
 Initial convergence to 1.0D-05 achieved.  Increase integral accuracy.
 SCF Done:  E(RB3LYP) =  -310.786514054     A.U. after   14 cycles
             Convg  =    0.6198D-08             -V/T =  2.0097
 Calling FoFJK, ICntrl=      2127 FMM=F ISym2X=1 I1Cent= 0 IOpClX= 0 NMat=1 NMatS=1 NMatT=0.
 ***** Axes restored to original set *****
 -------------------------------------------------------------------
 Center     Atomic                   Forces (Hartrees/Bohr)
 Number     Number              X              Y              Z
 -------------------------------------------------------------------
      1        6          -0.004217490   -0.000136121    0.000000000
      2        1          -0.000676381   -0.000897775    0.000000000
      3        1          -0.000673914    0.000991542    0.000000000
      4        6          -0.005897260   -0.004535609    0.000000000
      5        1          -0.002568680    0.001863514    0.000000000
      6        6           0.004387143   -0.000289444    0.000000000
      7        1           0.001218648    0.000385994    0.000000000
      8        6          -0.005625628   -0.001052936    0.000000000
      9        1          -0.001584266   -0.000420051    0.000000000
     10        6           0.005166708    0.006889762    0.000000000
     11        1           0.001525361   -0.001988211    0.000000000
     12        6           0.000320628   -0.001970730    0.000000000
     13        1          -0.001813589    0.000526526    0.000000000
     14        6           0.004918687   -0.003576086    0.000000000
     15        1           0.001165906    0.002302793    0.000000000
     16        6           0.003148724    0.001019376    0.000000000
     17        1           0.000886458   -0.000271713    0.000000000
     18        1           0.000318946    0.001159170    0.000000000
 -------------------------------------------------------------------
 Cartesian Forces:  Max     0.006889762 RMS     0.002306325

 GradGradGradGradGradGradGradGradGradGradGradGradGradGradGradGradGradGrad
 Berny optimization.
 Using GEDIIS/GDIIS optimizer.
 Internal  Forces:  Max     0.016070056 RMS     0.003582885
 Search for a local minimum.
 Step number   3 out of a maximum of   79
 All quantities printed in internal units (Hartrees-Bohrs-Radians)
 Mixed Optimization -- RFO/linear search
 Update second derivatives using D2CorX and points    2    3
 DE= -2.28D-02 DEPred=-2.58D-02 R= 8.81D-01
 SS=  1.41D+00  RLast= 5.27D-01 DXNew= 8.4853D-01 1.5797D+00
 Trust test= 8.81D-01 RLast= 5.27D-01 DXMaxT set to 8.49D-01
 ITU=  1  1  0
 Use linear search instead of GDIIS.
     Eigenvalues ---    0.00237   0.00237   0.00237   0.01503   0.01504
     Eigenvalues ---    0.01504   0.01505   0.01510   0.01515   0.02681
     Eigenvalues ---    0.02681   0.02681   0.02681   0.02681   0.02681
     Eigenvalues ---    0.14187   0.16000   0.16000   0.16000   0.16000
     Eigenvalues ---    0.16000   0.16000   0.16000   0.16023   0.17210
     Eigenvalues ---    0.18913   0.22000   0.22000   0.22000   0.22214
     Eigenvalues ---    0.22446   0.28519   0.28592   0.30882   0.37129
     Eigenvalues ---    0.37230   0.37230   0.37230   0.37230   0.37230
     Eigenvalues ---    0.37230   0.37230   0.37234   0.38437   0.53922
     Eigenvalues ---    0.53930   0.54161   0.56582
 RFO step:  Lambda=-2.42470481D-03 EMin= 2.36824102D-03
 Quartic linear search produced a step of -0.08472.
 Iteration  1 RMS(Cart)=  0.05122290 RMS(Int)=  0.00009706
 Iteration  2 RMS(Cart)=  0.00015928 RMS(Int)=  0.00000000
 Iteration  3 RMS(Cart)=  0.00000002 RMS(Int)=  0.00000000
 ClnCor:  largest displacement from symmetrization is 4.84D-11 for atom    18.
 Variable       Old X    -DE/DX   Delta X   Delta X   Delta X     New X
                                 (Linear)    (Quad)   (Total)
    R1        2.05558  -0.00102  -0.00136  -0.00090  -0.00226   2.05331
    R2        2.05049   0.00040  -0.00131   0.00250   0.00119   2.05168
    R3        2.53550   0.00394   0.00031   0.00643   0.00674   2.54224
    R4        2.06264  -0.00110  -0.00127  -0.00123  -0.00249   2.06015
    R5        2.72609   0.01428   0.01087   0.03204   0.04291   2.76900
    R6        2.05593   0.00034  -0.00174   0.00289   0.00115   2.05708
    R7        2.55521   0.00626   0.00062   0.00981   0.01044   2.56565
    R8        2.05587   0.00052  -0.00173   0.00330   0.00157   2.05744
    R9        2.70689   0.01607   0.01221   0.03609   0.04831   2.75519
   R10        2.06263  -0.00150  -0.00133  -0.00214  -0.00347   2.05916
   R11        2.55229   0.00699   0.00000   0.01186   0.01186   2.56415
   R12        2.05693  -0.00006  -0.00167   0.00181   0.00014   2.05707
   R13        2.73724   0.01038   0.00949   0.02133   0.03083   2.76807
   R14        2.06323  -0.00124  -0.00137  -0.00146  -0.00283   2.06039
   R15        2.53535   0.00369   0.00027   0.00607   0.00634   2.54169
   R16        2.05476  -0.00068  -0.00131  -0.00013  -0.00144   2.05331
   R17        2.05041   0.00038  -0.00131   0.00247   0.00116   2.05158
    A1        2.03781  -0.00110   0.00358  -0.01101  -0.00743   2.03038
    A2        2.14100  -0.00012  -0.00218   0.00241   0.00023   2.14122
    A3        2.10438   0.00122  -0.00140   0.00860   0.00720   2.11158
    A4        2.07351  -0.00493  -0.00002  -0.02603  -0.02605   2.04746
    A5        2.22045   0.00372   0.01558  -0.00479   0.01080   2.23124
    A6        1.98923   0.00121  -0.01556   0.03081   0.01525   2.00448
    A7        2.00585  -0.00061   0.00369  -0.00571  -0.00203   2.00382
    A8        2.20049   0.00376  -0.00482   0.02175   0.01694   2.21743
    A9        2.07685  -0.00314   0.00113  -0.01604  -0.01491   2.06193
   A10        2.07506  -0.00407   0.00157  -0.02093  -0.01937   2.05569
   A11        2.20490   0.00494  -0.00554   0.02755   0.02200   2.22691
   A12        2.00322  -0.00087   0.00398  -0.00661  -0.00264   2.00059
   A13        1.99228   0.00102  -0.01546   0.02832   0.01285   2.00514
   A14        2.22401   0.00210   0.01545  -0.01123   0.00422   2.22823
   A15        2.06689  -0.00312   0.00001  -0.01708  -0.01707   2.04982
   A16        2.09022  -0.00436   0.00137  -0.02225  -0.02088   2.06934
   A17        2.19139   0.00483  -0.00571   0.02720   0.02149   2.21288
   A18        2.00158  -0.00047   0.00433  -0.00495  -0.00061   2.00096
   A19        1.99021   0.00093  -0.01560   0.02848   0.01288   2.00309
   A20        2.22679   0.00281   0.01500  -0.00776   0.00724   2.23403
   A21        2.06618  -0.00374   0.00060  -0.02072  -0.02012   2.04606
   A22        2.14122   0.00008  -0.00226   0.00364   0.00139   2.14260
   A23        2.10331   0.00113  -0.00135   0.00802   0.00666   2.10998
   A24        2.03866  -0.00121   0.00361  -0.01166  -0.00805   2.03060
    D1        3.14159   0.00000   0.00000   0.00000   0.00000   3.14159
    D2        0.00000   0.00000   0.00000   0.00000   0.00000   0.00000
    D3        0.00000   0.00000   0.00000   0.00000   0.00000   0.00000
    D4        3.14159   0.00000   0.00000   0.00000   0.00000   3.14159
    D5        3.14159   0.00000   0.00000   0.00000   0.00000   3.14159
    D6        0.00000   0.00000   0.00000   0.00000   0.00000   0.00000
    D7        0.00000   0.00000   0.00000   0.00000   0.00000   0.00000
    D8        3.14159   0.00000   0.00000   0.00000   0.00000   3.14159
    D9        0.00000   0.00000   0.00000   0.00000   0.00000   0.00000
   D10        3.14159   0.00000   0.00000   0.00000   0.00000   3.14159
   D11        3.14159   0.00000   0.00000   0.00000   0.00000   3.14159
   D12        0.00000   0.00000   0.00000   0.00000   0.00000   0.00000
   D13        3.14159   0.00000   0.00000   0.00000   0.00000   3.14159
   D14        0.00000   0.00000   0.00000   0.00000   0.00000   0.00000
   D15        0.00000   0.00000   0.00000   0.00000   0.00000   0.00000
   D16        3.14159   0.00000   0.00000   0.00000   0.00000   3.14159
   D17        0.00000   0.00000   0.00000   0.00000   0.00000   0.00000
   D18        3.14159   0.00000   0.00000   0.00000   0.00000   3.14159
   D19        3.14159   0.00000   0.00000   0.00000   0.00000   3.14159
   D20        0.00000   0.00000   0.00000   0.00000   0.00000   0.00000
   D21        3.14159   0.00000   0.00000   0.00000   0.00000   3.14159
   D22        0.00000   0.00000   0.00000   0.00000   0.00000   0.00000
   D23        0.00000   0.00000   0.00000   0.00000   0.00000   0.00000
   D24        3.14159   0.00000   0.00000   0.00000   0.00000   3.14159
   D25        0.00000   0.00000   0.00000   0.00000   0.00000   0.00000
   D26        3.14159   0.00000   0.00000   0.00000   0.00000   3.14159
   D27        3.14159   0.00000   0.00000   0.00000   0.00000   3.14159
   D28        0.00000   0.00000   0.00000   0.00000   0.00000   0.00000
         Item               Value     Threshold  Converged?
 Maximum Force            0.016070     0.000450     NO 
 RMS     Force            0.003583     0.000300     NO 
 Maximum Displacement     0.163023     0.001800     NO 
 RMS     Displacement     0.051170     0.001200     NO 
 Predicted change in Energy=-1.431324D-03
 GradGradGradGradGradGradGradGradGradGradGradGradGradGradGradGradGradGrad

                          Input orientation:                          
 ---------------------------------------------------------------------
 Center     Atomic      Atomic             Coordinates (Angstroms)
 Number     Number       Type             X           Y           Z
 ---------------------------------------------------------------------
      1          6           0       -5.988637   -1.236601    0.000000
      2          1           0       -5.780033   -0.170246    0.000000
      3          1           0       -7.036044   -1.522421    0.000000
      4          6           0       -5.016871   -2.166921    0.000000
      5          1           0       -5.325420   -3.212529    0.000000
      6          6           0       -3.567324   -1.952681    0.000000
      7          1           0       -2.970981   -2.863362    0.000000
      8          6           0       -2.916542   -0.761133    0.000000
      9          1           0       -3.518660    0.145966    0.000000
     10          6           0       -1.476310   -0.534300    0.000000
     11          1           0       -1.177140    0.513485    0.000000
     12          6           0       -0.490127   -1.466280    0.000000
     13          1           0       -0.768503   -2.518637    0.000000
     14          6           0        0.953165   -1.216203    0.000000
     15          1           0        1.572270   -2.113696    0.000000
     16          6           0        1.588141   -0.030518    0.000000
     17          1           0        1.060249    0.919197    0.000000
     18          1           0        2.672563    0.021042    0.000000
 ---------------------------------------------------------------------
                    Distance matrix (angstroms):
                    1          2          3          4          5
     1  C    0.000000
     2  H    1.086567   0.000000
     3  H    1.085704   1.845519   0.000000
     4  C    1.345297   2.137552   2.119538   0.000000
     5  H    2.084262   3.076062   2.404725   1.090182   0.000000
     6  C    2.524981   2.841330   3.495303   1.465294   2.162896
     7  H    3.428206   3.891484   4.280521   2.161179   2.380189
     8  C    3.108672   2.923821   4.189255   2.527375   3.436864
     9  H    2.830597   2.283375   3.893007   2.755737   3.813643
    10  C    4.566653   4.319093   5.646860   3.898849   4.689196
    11  H    5.119893   4.653398   6.202553   4.682746   5.575967
    12  C    5.503305   5.446358   6.546158   4.580645   5.140957
    13  H    5.375260   5.534472   6.346221   4.262903   4.609445
    14  C    6.941832   6.813955   7.995075   6.045262   6.588319
    15  H    7.611610   7.604825   8.628596   6.589356   6.984666
    16  C    7.672171   7.369499   8.752276   6.941931   7.610684
    17  H    7.371177   6.926496   8.456444   6.815828   7.605782
    18  H    8.752032   8.454761   9.830531   7.994660   8.626918
                    6          7          8          9         10
     6  C    0.000000
     7  H    1.088561   0.000000
     8  C    1.357683   2.102934   0.000000
     9  H    2.099211   3.058759   1.088749   0.000000
[...]
 ! R10   R(10,11)                1.0893         -DE/DX =    0.0                 !
 ! R11   R(10,12)                1.3552         -DE/DX =    0.0                 !
 ! R12   R(12,13)                1.0889         -DE/DX =    0.0                 !
 ! R13   R(12,14)                1.4604         -DE/DX =    0.0                 !
 ! R14   R(14,15)                1.0897         -DE/DX =    0.0                 !
 ! R15   R(14,16)                1.344          -DE/DX =    0.0                 !
 ! R16   R(16,17)                1.087          -DE/DX =    0.0                 !
 ! R17   R(16,18)                1.0856         -DE/DX =    0.0                 !
 ! A1    A(2,1,3)              116.307          -DE/DX =    0.0                 !
 ! A2    A(2,1,4)              122.7227         -DE/DX =    0.0                 !
 ! A3    A(3,1,4)              120.9703         -DE/DX =    0.0                 !
 ! A4    A(1,4,5)              117.5006         -DE/DX =    0.0                 !
 ! A5    A(1,4,6)              127.8865         -DE/DX =    0.0001              !
 ! A6    A(5,4,6)              114.6129         -DE/DX =    0.0                 !
 ! A7    A(4,6,7)              114.8911         -DE/DX =    0.0                 !
 ! A8    A(4,6,8)              126.6508         -DE/DX =   -0.0001              !
 ! A9    A(7,6,8)              118.4581         -DE/DX =    0.0001              !
 ! A10   A(6,8,9)              117.9353         -DE/DX =    0.0                 !
 ! A11   A(6,8,10)             127.3958         -DE/DX =    0.0001              !
 ! A12   A(9,8,10)             114.6689         -DE/DX =    0.0                 !
 ! A13   A(8,10,11)            114.6767         -DE/DX =    0.0                 !
 ! A14   A(8,10,12)            127.432          -DE/DX =    0.0                 !
 ! A15   A(11,10,12)           117.8912         -DE/DX =    0.0001              !
 ! A16   A(10,12,13)           118.5153         -DE/DX =   -0.0001              !
 ! A17   A(10,12,14)           126.6309         -DE/DX =    0.0                 !
 ! A18   A(13,12,14)           114.8538         -DE/DX =    0.0                 !
 ! A19   A(12,14,15)           114.5864         -DE/DX =    0.0                 !
 ! A20   A(12,14,16)           127.9537         -DE/DX =    0.0                 !
 ! A21   A(15,14,16)           117.4599         -DE/DX =    0.0                 !
 ! A22   A(14,16,17)           122.7708         -DE/DX =    0.0                 !
 ! A23   A(14,16,18)           120.9384         -DE/DX =    0.0                 !
 ! A24   A(17,16,18)           116.2908         -DE/DX =    0.0                 !
 ! D1    D(2,1,4,5)            180.0            -DE/DX =    0.0                 !
 ! D2    D(2,1,4,6)              0.0            -DE/DX =    0.0                 !
 ! D3    D(3,1,4,5)              0.0            -DE/DX =    0.0                 !
 ! D4    D(3,1,4,6)            180.0            -DE/DX =    0.0                 !
 ! D5    D(1,4,6,7)            180.0            -DE/DX =    0.0                 !
 ! D6    D(1,4,6,8)              0.0            -DE/DX =    0.0                 !
 ! D7    D(5,4,6,7)              0.0            -DE/DX =    0.0                 !
 ! D8    D(5,4,6,8)            180.0            -DE/DX =    0.0                 !
 ! D9    D(4,6,8,9)              0.0            -DE/DX =    0.0                 !
 ! D10   D(4,6,8,10)           180.0            -DE/DX =    0.0                 !
 ! D11   D(7,6,8,9)            180.0            -DE/DX =    0.0                 !
 ! D12   D(7,6,8,10)             0.0            -DE/DX =    0.0                 !
 ! D13   D(6,8,10,11)          180.0            -DE/DX =    0.0                 !
 ! D14   D(6,8,10,12)            0.0            -DE/DX =    0.0                 !
 ! D15   D(9,8,10,11)            0.0            -DE/DX =    0.0                 !
 ! D16   D(9,8,10,12)          180.0            -DE/DX =    0.0                 !
 ! D17   D(8,10,12,13)           0.0            -DE/DX =    0.0                 !
 ! D18   D(8,10,12,14)         180.0            -DE/DX =    0.0                 !
 ! D19   D(11,10,12,13)        180.0            -DE/DX =    0.0                 !
 ! D20   D(11,10,12,14)          0.0            -DE/DX =    0.0                 !
 ! D21   D(10,12,14,15)        180.0            -DE/DX =    0.0                 !
 ! D22   D(10,12,14,16)          0.0            -DE/DX =    0.0                 !
 ! D23   D(13,12,14,15)          0.0            -DE/DX =    0.0                 !
 ! D24   D(13,12,14,16)        180.0            -DE/DX =    0.0                 !
 ! D25   D(12,14,16,17)          0.0            -DE/DX =    0.0                 !
 ! D26   D(12,14,16,18)        180.0            -DE/DX =    0.0                 !
 ! D27   D(15,14,16,17)        180.0            -DE/DX =    0.0                 !
 ! D28   D(15,14,16,18)          0.0            -DE/DX =    0.0                 !
 --------------------------------------------------------------------------------
 GradGradGradGradGradGradGradGradGradGradGradGradGradGradGradGradGradGrad

 1\1\GINC-NISER-THINKCENTRE-M93P\Freq\RB3LYP\6-31G(d)\C8H10\STUDENT\02-
 Mar-2021\0\\#N Geom=AllCheck Guess=TCheck SCRF=Check GenChk RB3LYP/6-3
 1G(d) Freq\\Title Card Required\\0,1\C,-5.9730765169,-1.2334252338,0.\
 H,-5.7635711155,-0.1668865216,0.\H,-7.0207073101,-1.5179350932,0.\C,-5
 .0035925771,-2.1642997947,0.\H,-5.3100773074,-3.2099879751,0.\C,-3.558
 3914405,-1.9540501017,0.\H,-2.9626365163,-2.865553756,0.\C,-2.91434845
 16,-0.7615942864,0.\H,-3.5185555442,0.1446723198,0.\C,-1.4796087904,-0
 .5337782821,0.\H,-1.18569293,0.5150695566,0.\C,-0.4973178121,-1.467422
 7354,0.\H,-0.7797056128,-2.5190867254,0.\C,0.9417174746,-1.2182491415,
 0.\H,1.5575272293,-2.1172824204,0.\C,1.5753873281,-0.0329926535,0.\H,1
 .0467781002,0.9167680295,0.\H,2.6596664928,0.0201943649,0.\\Version=EM
 64L-G09RevC.01\State=1-A'\HF=-310.787616\RMSD=4.841e-09\RMSF=2.708e-05
 \ZeroPoint=0.1518282\Thermal=0.1588487\Dipole=0.0048004,-0.0362292,0.\
 DipoleDeriv=-0.2748227,0.0138288,0.,0.0138222,0.0380143,0.,0.,0.,-0.29
 39292,0.0376712,-0.0599611,0.,-0.0188567,-0.089665,0.,0.,0.,0.1352982,
 -0.1094922,-0.0267678,0.,-0.0328276,0.0440589,0.,0.,0.,0.133789,0.3053
 16,0.0862027,0.,0.4438655,0.1896004,0.,0.,0.,-0.0896067,-0.0158108,-0.
 0357145,0.,-0.0955697,-0.1313441,0.,0.,0.,0.109586,-0.0096906,-0.08164
 73,0.,-0.3827038,0.0150839,0.,0.,0.,-0.1073518,-0.0194832,0.0820256,0.
 ,0.0687189,-0.064898,0.,0.,0.,0.1075726,0.1722943,-0.0381328,0.,-0.398
 4426,0.0093706,0.,0.,0.,-0.1006926,-0.0366128,0.0726444,0.,0.0846766,-
 0.0597725,0.,0.,0.,0.1054394,0.0292078,0.0441989,0.,0.4042009,0.15353,
 0.,0.,0.,-0.1006075,0.0074226,-0.050675,0.,-0.0627899,-0.1040131,0.,0.
 ,0.,0.1053793,-0.1454337,0.0294042,0.,0.3308835,0.1500985,0.,0.,0.,-0.
 107416,0.0206154,-0.0538962,0.,-0.040825,-0.1050956,0.,0.,0.,0.1075933
 ,0.4512727,-0.0005318,0.,-0.3584449,0.0443268,0.,0.,0.,-0.0896771,-0.0
 658148,0.0571869,0.,0.1170586,-0.0817821,0.,0.,0.,0.1095321,-0.2365112
 ,-0.1038001,0.,-0.1037542,0.0001329,0.,0.,0.,-0.2940471,0.0023558,0.08
 97877,0.,0.0489389,-0.0543847,0.,0.,0.,0.1354082,-0.112484,-0.0241524,
 0.,-0.0179508,0.0467388,0.,0.,0.,0.1337301\Polar=217.8166896,21.521969
 6,85.9252725,0.,0.,28.9226401\PG=CS [SG(C8H10)]\NImag=3\\0.74531059,-0
 .08954436,0.73534207,0.,0.,0.09979135,-0.07230677,-0.05778697,0.,0.066
 80736,-0.05540024,-0.32686890,0.,0.05977999,0.34986627,0.,0.,-0.034832
 23,0.,0.,0.02096627,-0.32315024,-0.07547768,0.,-0.00203621,0.00028100,
 0.,0.34295594,-0.07994151,-0.08032716,0.,-0.02740830,-0.00432038,0.,0.
 07972057,0.07703811,0.,0.,-0.02914057,0.,0.,0.00267844,0.,0.,0.0206240
 8,-0.31146809,0.19121236,0.,0.01190523,-0.00601334,0.,-0.01857434,0.02
 467363,0.,0.68011106,0.21025766,-0.32020123,0.,0.02340497,-0.01937990,
 0.,-0.00834282,0.00873244,0.,-0.10653348,0.74550649,0.,0.,-0.04960350,
 0.,0.,0.00495994,0.,0.,0.00400269,0.,0.,0.12946466,0.00856663,0.025318
 17,0.,-0.00267569,0.00333650,0.,0.00110346,0.00015594,0.,-0.07980918,-
 0.07444562,0.,0.08722790,-0.00682275,-0.02192556,0.,0.00329497,-0.0012
 1542,0.,0.00022104,0.00137927,0.,-0.07466948,-0.30709169,0.,0.07757635
 ,0.32938067,0.,0.,0.00516470,0.,0.,0.01218710,0.,0.,-0.00774512,0.,0.,
 -0.04084460,0.,0.,0.02700548,-0.04523050,0.01717421,0.,0.00018250,-0.0
 0198339,0.,0.00033714,0.00165299,0.,-0.23904984,-0.04269778,0.,-0.0092
 2196,0.00127212,0.,0.62669250,0.01175194,0.01992751,0.,-0.00120997,0.0
 0046102,0.,0.00365712,-0.00263971,0.,0.00650431,-0.11418172,0.,-0.0319
 8918,-0.00307678,0.,0.05014565,0.77182832,0.,0.,0.00614205,0.,0.,-0.00
 720922,0.,0.,0.01054158,0.,0.,-0.05765321,0.,0.,0.00301237,0.,0.,0.127
 71386,-0.00476068,-0.00339316,0.,0.00022700,0.00013387,0.,-0.00104536,
 0.00106464,0.,-0.01691186,0.02814260,0.,0.00095144,-0.00019900,0.,-0.1
 3971203,0.12322420,0.,0.15163911,-0.00104188,0.00063678,0.,-0.00020680
 ,0.00008809,0.,-0.00018711,0.00008331,0.,-0.00561599,0.00496064,0.,0.0
 0005052,0.00124492,0.,0.12464106,-0.24761068,0.,-0.13322790,0.26639116
 ,0.,0.,0.00202896,0.,0.,-0.00014068,0.,0.,-0.00001156,0.,0.,0.00374058
 ,0.,0.,-0.00104500,0.,0.,-0.04045169,0.,0.,0.02399603,0.00766095,-0.01
 059618,0.,-0.00050123,0.00029358,0.,0.00029109,-0.00004239,0.,-0.03965
 813,-0.02716386,0.,-0.00611224,-0.00082254,0.,-0.16720865,-0.12591654,
 0.,0.01361838,0.01811530,0.,0.63100808,0.01122928,-0.00665427,0.,0.001
 00597,-0.00014634,0.,0.00021230,-0.00091429,0.,-0.03394126,0.00610349,
 0.,0.00150017,0.00131405,0.,-0.12937683,-0.39884659,0.,-0.01222527,-0.
 02468912,0.,0.04941006,0.76986245,0.,0.,0.00062020,0.,0.,0.00050831,0.
 ,0.,-0.00063964,0.,0.,0.00468501,0.,0.,0.00243901,0.,0.,-0.05614691,0.
 ,0.,0.00590347,0.,0.,0.12903669,-0.00033498,-0.00096298,0.,-0.00172604
 ,-0.00021994,0.,0.00014848,0.00008192,0.,-0.00096434,0.00035714,0.,0.0
 0018563,0.00023953,0.,0.01354501,-0.01201940,0.,-0.00095595,-0.0030242
 3,0.,-0.14154236,0.12384998,0.,0.15386363,-0.00021376,-0.00045526,0.,-
 0.00058087,0.00103406,0.,-0.00001550,0.00056538,0.,0.00146659,0.001107
 75,0.,-0.00007551,0.00016980,0.,0.01810415,-0.02501455,0.,-0.00302425,
 -0.00362073,0.,0.12533101,-0.24502949,0.,-0.13367002,0.26391961,0.,0.,
 0.00035215,0.,0.,0.00115689,0.,0.,-0.00024578,0.,0.,-0.00659542,0.,0.,
 -0.00013412,0.,0.,0.00590082,0.,0.,0.01131630,0.,0.,-0.04150643,0.,0.,
 0.02497314,-0.00522834,0.00591382,0.,-0.00000586,-0.00013434,0.,0.0000
 8135,0.00011539,0.,0.01862822,-0.00324601,0.,0.00046032,0.00014451,0.,
 -0.04134601,-0.03839380,0.,-0.00106387,0.00135926,0.,-0.24435501,0.006
 84193,0.,-0.01774201,-0.00569886,0.,0.67411340,0.00213878,-0.00116495,
 0.,-0.00028964,0.00050630,0.,-0.00002744,0.00030393,0.,-0.00317669,-0.
 00491224,0.,-0.00140753,-0.00010624,0.,-0.02690662,0.00677220,0.,0.000
 65407,0.00124682,0.,-0.04865708,-0.11578660,0.,0.02761687,0.00514103,0
 .,-0.08135416,0.72833349,0.,0.,-0.00050346,0.,0.,-0.00033679,0.,0.,-0.
 00014362,0.,0.,0.00866789,0.,0.,0.00014929,0.,0.,0.00492596,0.,0.,-0.0
 0654580,0.,0.,-0.05474618,0.,0.,0.00362644,0.,0.,0.12900823,-0.0001648
 3,0.00002747,0.,-0.00001544,0.00003922,0.,-0.00004892,0.00004881,0.,0.
 00045421,-0.00139386,0.,-0.00048201,-0.00011086,0.,-0.00587044,0.00144
 274,0.,0.00018448,-0.00009077,0.,-0.00907537,-0.03224544,0.,0.00095403
 ,-0.00004125,0.,-0.07837228,-0.06892931,0.,0.08610302,-0.00011602,-0.0
 0006205,0.,0.00001385,0.00001249,0.,-0.00002769,0.00002135,0.,0.000166
 66,-0.00018740,0.,-0.00011739,-0.00001800,0.,-0.00078149,0.00141467,0.
 ,0.00023570,0.00015532,0.,0.00106090,-0.00351718,0.,-0.00007878,0.0013
 5350,0.,-0.07071679,-0.30883602,0.,0.07527436,0.33222721,0.,0.,0.00002
 710,0.,0.,-0.00000818,0.,0.,0.00001444,0.,0.,0.00005457,0.,0.,-0.00021
 542,0.,0.,0.00281955,0.,0.,-0.00018480,0.,0.,0.00362300,0.,0.,-0.00135
 122,0.,0.,-0.04147712,0.,0.,0.02501630,0.00203093,-0.00296127,0.,0.000
 14221,-0.00007410,0.,-0.00009914,-0.00011145,0.,-0.00764561,0.00262149
 ,0.,-0.00019163,-0.00011657,0.,0.01186217,0.01694280,0.,-0.00027135,-0
 .00016621,0.,-0.05598012,0.00642884,0.,-0.00496812,-0.00129881,0.,-0.2
 6488247,0.17333361,0.,0.01150567,-0.00607632,0.,0.67047616,-0.00171750
 ,0.00187874,0.,0.00000644,-0.00009975,0.,0.00008477,-0.00001838,0.,0.0
 0546197,-0.00173348,0.,0.00003926,-0.00002785,0.,-0.01068269,-0.007274
 58,0.,-0.00120905,-0.00074495,0.,0.01796872,0.02135320,0.,-0.00352370,
 0.00051560,0.,0.16978870,-0.30217062,0.,0.02379740,-0.02296820,0.,-0.0
 8408382,0.72980880,0.,0.,-0.00006519,0.,0.,-0.00006482,0.,0.,0.0001324
 3,0.,0.,-0.00063743,0.,0.,0.00002868,0.,0.,0.00052264,0.,0.,0.00048303
 ,0.,0.,0.00493242,0.,0.,0.00282047,0.,0.,-0.05606445,0.,0.,0.00584070,
 0.,0.,0.12765283,0.00016085,0.00000939,0.,-0.00000760,-0.00000607,0.,0
 .00003717,-0.00002637,0.,-0.00006754,-0.00030941,0.,-0.00001725,0.0000
 2001,0.,-0.00072813,0.00112232,0.,-0.00189070,-0.00064143,0.,-0.000231
 02,-0.00114780,0.,0.00022554,-0.00021543,0.,0.01159149,0.02383293,0.,-
 0.00300080,0.00322631,0.,-0.07711015,-0.06669430,0.,0.08431397,-0.0000
 9560,-0.00008245,0.,-0.00000236,0.00001854,0.,-0.00004029,0.00003070,0
 .,-0.00012153,0.00056211,0.,0.00004435,0.00001355,0.,0.00018507,-0.000
 24704,0.,-0.00031017,0.00120187,0.,-0.00188931,0.00046859,0.,0.0001135
 6,0.00011702,0.,-0.00619222,-0.02251480,0.,0.00322911,-0.00157793,0.,-
 0.06851038,-0.31098206,0.,0.07321226,0.33428252,0.,0.,-0.00007499,0.,0
 .,-0.00002024,0.,0.,0.00016548,0.,0.,-0.00044073,0.,0.,0.00000970,0.,0
 .,0.00048839,0.,0.,0.00127233,0.,0.,-0.00654597,0.,0.,-0.00018638,0.,0
 .,0.00582863,0.,0.,0.01131906,0.,0.,-0.04041202,0.,0.,0.02402756,-0.00
 079762,0.00152892,0.,-0.00003548,-0.00002592,0.,0.00009604,-0.00000837
 ,0.,0.00338803,-0.00150120,0.,0.00015733,0.00010421,0.,-0.00469310,-0.
 00643077,0.,-0.00013478,-0.00010537,0.,0.01447519,0.00949674,0.,0.0000
 3134,-0.00009537,0.,-0.05332062,0.01461527,0.,-0.00021663,-0.00192418,
 0.,-0.23763906,-0.04688902,0.,-0.00817673,0.00132772,0.,0.62373309,-0.
 00113446,0.00063209,0.,-0.00003288,0.00003482,0.,-0.00005136,0.0000823
 7,0.,0.00252155,0.00026127,0.,0.00003142,-0.00005105,0.,-0.00358809,-0
 .00468986,0.,0.00008297,0.00062841,0.,0.00957155,-0.00075391,0.,0.0014
 6390,0.00023485,0.,0.00780471,0.01969802,0.,-0.00082540,0.00039822,0.,
 0.00237033,-0.11556182,0.,-0.03245476,-0.00383395,0.,0.06709483,0.8014
 0533,0.,0.,0.00011604,0.,0.,0.00015770,0.,0.,-0.00025276,0.,0.,0.00020
 287,0.,0.,-0.00002409,0.,0.,-0.00063750,0.,0.,-0.00044134,0.,0.,0.0086
 7055,0.,0.,0.00005526,0.,0.,0.00468699,0.,0.,-0.00661145,0.,0.,-0.0576
 6723,0.,0.,0.00373900,0.,0.,0.12955145,-0.00012776,0.00001518,0.,0.000
 02036,-0.00001747,0.,-0.00001949,-0.00000411,0.,0.00017715,0.00004314,
 0.,-0.00004527,-0.00003558,0.,-0.00019891,-0.00009493,0.,0.00000494,-0
 .00004697,0.,0.00003443,0.00145258,0.,-0.00050460,-0.00004110,0.,-0.00
 520461,-0.00362278,0.,0.00023482,0.00009333,0.,-0.01771838,0.02722178,
 0.,0.00093357,-0.00014365,0.,-0.14558454,0.12718207,0.,0.15625037,0.00
 004921,0.00002274,0.,-0.00000239,0.00000098,0.,0.00001057,-0.00000262,
 0.,-0.00002977,-0.00007096,0.,0.00001481,0.00001846,0.,0.00006103,-0.0
 0002137,0.,-0.00002298,-0.00000821,0.,-0.00009969,0.00032118,0.,-0.000
 04790,0.00000469,0.,-0.00129832,0.00039570,0.,-0.00022134,0.00012516,0
 .,-0.00606046,0.00539392,0.,0.00010947,0.00127175,0.,0.12737357,-0.240
 97237,0.,-0.13406333,0.26010885,0.,0.,0.00000133,0.,0.,0.00000022,0.,0
 .,0.00000371,0.,0.,-0.00002406,0.,0.,0.00000673,0.,0.,0.00002854,0.,0.
 ,0.00000958,0.,0.,0.00014930,0.,0.,-0.00021533,0.,0.,0.00243986,0.,0.,
 -0.00013430,0.,0.,0.00302619,0.,0.,-0.00104654,0.,0.,-0.04089544,0.,0.
 ,0.02703537,-0.00012863,-0.00047139,0.,0.00002403,0.00001297,0.,-0.000
 07023,0.00002713,0.,-0.00054607,0.00075082,0.,-0.00009410,-0.00008721,
 0.,0.00064087,0.00131614,0.,0.00011218,0.00015913,0.,-0.00246981,-0.00
 255909,0.,-0.00018168,0.00007690,0.,0.00649127,-0.00696468,0.,-0.00070
 474,0.00016415,0.,-0.03038557,-0.02812962,0.,-0.00554205,-0.00098065,0
 .,-0.19416953,-0.16929546,0.,0.01108486,0.01759938,0.,0.69134894,0.000
 64362,-0.00065811,0.,0.00001812,-0.00000164,0.,-0.00001466,-0.00002338
 ,0.,-0.00191170,0.00037753,0.,-0.00005327,-0.00001065,0.,0.00255676,0.
 00327340,0.,0.00005453,-0.00003278,0.,-0.00633312,-0.00392489,0.,-0.00
 006544,-0.00004598,0.,0.01491901,-0.00544607,0.,0.00078552,-0.00003081
 ,0.,-0.03352251,0.00521548,0.,0.00137695,0.00143901,0.,-0.15034524,-0.
 43720330,0.,-0.01459304,-0.02449543,0.,0.07528055,0.78827839,0.,0.,-0.
 00001043,0.,0.,-0.00000408,0.,0.,-0.00000941,0.,0.,0.00011579,0.,0.,0.
 00000132,0.,0.,-0.00006484,0.,0.,-0.00007466,0.,0.,-0.00050330,0.,0.,0
 .00002710,0.,0.,0.00061723,0.,0.,0.00036562,0.,0.,0.00613084,0.,0.,0.0
 0202936,0.,0.,-0.04960570,0.,0.,0.00516714,0.,0.,0.09985054,0.00003064
 ,-0.00000754,0.,-0.00000526,0.00000119,0.,0.00000576,-0.00000007,0.,-0
 .00004593,0.00000644,0.,0.00001257,0.00000617,0.,0.00009841,0.00005842
 ,0.,-0.00000796,-0.00000642,0.,-0.00008252,0.00009741,0.,0.00000234,-0
 .00001689,0.,-0.00007014,-0.00101599,0.,-0.00169288,-0.00029570,0.,-0.
 00074368,0.00082831,0.,0.00018898,0.00023672,0.,0.01405231,-0.01262287
 ,0.,-0.00057494,-0.00309460,0.,-0.12978533,0.12195108,0.,0.12884945,-0
 .00000260,-0.00000839,0.,-0.00000521,0.00000710,0.,0.00000449,0.000003
 82,0.,-0.00000038,0.00004565,0.,0.00002125,0.00000867,0.,0.00013867,-0
 .00005642,0.,-0.00000281,0.00001825,0.,-0.00005765,0.00058337,0.,-0.00
 004291,-0.00000565,0.,-0.00026498,-0.00060962,0.,-0.00058954,0.0009841
 1,0.,0.00155066,0.00132560,0.,-0.00010377,0.00011830,0.,0.01693484,-0.
 02162152,0.,-0.00312406,-0.00331452,0.,0.11936081,-0.26890443,0.,-0.13
 162613,0.28756378,0.,0.,-0.00000403,0.,0.,0.00004456,0.,0.,-0.00004315
 ,0.,0.,0.00015724,0.,0.,0.00000024,0.,0.,-0.00006497,0.,0.,-0.00001997
 ,0.,0.,-0.00033396,0.,0.,-0.00000829,0.,0.,0.00050493,0.,0.,0.00114754
 ,0.,0.,-0.00720386,0.,0.,-0.00013949,0.,0.,0.00499469,0.,0.,0.01219510
 ,0.,0.,-0.03487171,0.,0.,0.02096565,-0.00006215,0.00000201,0.,0.000006
 89,-0.00000350,0.,-0.00001248,0.00000155,0.,0.00007702,0.00004981,0.,-
 0.00001595,-0.00001493,0.,-0.00009902,-0.00011104,0.,0.00001701,0.0000
 3582,0.,0.00012833,-0.00002958,0.,-0.00003593,0.00000897,0.,0.00022517
 ,0.00016038,0.,0.00020811,-0.00010091,0.,0.00161817,-0.00226766,0.,-0.
 00067960,-0.00006264,0.,-0.01116523,0.00188196,0.,0.00123799,-0.000277
 27,0.,-0.34562442,-0.01074715,0.,-0.01023181,-0.00219069,0.,0.36440790
 ,-0.00003979,-0.00003159,0.,0.00000108,0.00000269,0.,-0.00000731,0.000
 00524,0.,0.00000655,0.00010124,0.,-0.00000024,-0.00000613,0.,0.0000852
 0,-0.00001781,0.,0.00002200,0.00005089,0.,-0.00017275,0.00025634,0.,-0
 .00006761,0.00000835,0.,0.00041213,-0.00085032,0.,-0.00019685,0.000505
 56,0.,-0.00026583,-0.00390965,0.,-0.00131029,-0.00028576,0.,-0.0311506
 5,0.00131241,0.,-0.00022107,0.00122206,0.,-0.00625989,-0.05780634,0.,0
 .02550045,0.00386192,0.,0.01366488,0.05558092,0.,0.,-0.00000949,0.,0.,
 -0.00004320,0.,0.,0.00006877,0.,0.,-0.00025230,0.,0.,0.00000371,0.,0.,
 0.00013257,0.,0.,0.00016522,0.,0.,-0.00014554,0.,0.,0.00001442,0.,0.,-
 0.00063804,0.,0.,-0.00024540,0.,0.,0.01054478,0.,0.,-0.00001315,0.,0.,
 0.00396094,0.,0.,-0.00774739,0.,0.,-0.02916081,0.,0.,0.00267946,0.,0.,
 0.02068546\\-0.00000566,0.00004116,0.,0.00002891,-0.00001120,0.,0.0000
 0212,-0.00001471,0.,0.00004012,-0.00008711,0.,0.00000517,0.00000902,0.
 ,-0.00009593,0.00006215,0.,0.00003042,0.00000086,0.,-0.00003863,0.0000
 0168,0.,0.00001067,0.00001278,0.,-0.00000407,-0.00005184,0.,0.00004590
 ,0.00000173,0.,-0.00002302,0.00004029,0.,0.00004368,-0.00001623,0.,-0.
 00002877,0.00001735,0.,0.00000331,-0.00000097,0.,-0.00000460,0.0000241
 4,0.,-0.00001079,-0.00000475,0.,0.00000116,-0.00002434,0.\\\@


 IF IT HAPPENS, IT MUST BE POSSIBLE.

 -- THE UNNAMED LAW FROM PAUL DICKSON'S 
    "THE OFFICIAL RULES"
 Job cpu time:  0 days  0 hours  3 minutes 52.4 seconds.
 File lengths (MBytes):  RWF=     49 Int=      0 D2E=      0 Chk=      3 Scr=      1
 Normal termination of Gaussian 09 at Tue Mar  2 16:39:32 2021.
